# Force       
# CofR        : (2.000000e-01 2.000000e-01 5.000000e-01)
#
# Time        	total_x total_y total_z	pressure_x pressure_y pressure_z	viscous_x viscous_y viscous_z
0.01           1.620916e+02 4.759409e+00 1.663211e-16 1.619914e+02 4.753022e+00 1.745674e-16 1.001517e-01 6.386731e-03 -8.246345e-18
0.02           -1.323405e+00 -2.890404e+00 -1.726745e-18 -1.422111e+00 -2.894928e+00 -1.776687e-18 9.870505e-02 4.523604e-03 4.994216e-20
0.03           -3.059351e-01 -3.227627e-01 -9.911265e-19 -4.038217e-01 -3.270157e-01 -1.019420e-18 9.788661e-02 4.253077e-03 2.829319e-20
0.04           -1.181414e-01 -1.975471e-01 -8.144554e-19 -2.152776e-01 -2.016434e-01 -8.361781e-19 9.713619e-02 4.096355e-03 2.172268e-20
0.05           2.322747e-03 -1.479316e-01 -7.142967e-19 -9.410162e-02 -1.519216e-01 -7.322263e-19 9.642437e-02 3.989965e-03 1.792957e-20
0.06           9.887368e-02 -1.254514e-01 -6.482402e-19 3.127816e-03 -1.293598e-01 -6.636640e-19 9.574586e-02 3.908387e-03 1.542386e-20
0.07           1.747683e-01 -1.140435e-01 -5.996118e-19 7.967366e-02 -1.178817e-01 -6.132481e-19 9.509463e-02 3.838141e-03 1.363629e-20
0.08           2.347535e-01 -1.058824e-01 -5.629534e-19 1.402888e-01 -1.096530e-01 -5.752837e-19 9.446477e-02 3.770611e-03 1.233030e-20
0.09           2.842711e-01 -9.958204e-02 -5.343888e-19 1.904185e-01 -1.032827e-01 -5.457283e-19 9.385256e-02 3.700624e-03 1.133954e-20
0.1            3.254762e-01 -9.353193e-02 -5.114104e-19 2.322214e-01 -9.715827e-02 -5.219772e-19 9.325486e-02 3.626334e-03 1.056671e-20
0.11           3.603082e-01 -8.790062e-02 -4.924305e-19 2.676389e-01 -9.144669e-02 -5.023660e-19 9.266932e-02 3.546068e-03 9.935454e-21
0.12           3.841624e-01 -8.381014e-02 -4.765802e-19 2.920725e-01 -8.727059e-02 -4.860045e-19 9.208995e-02 3.460454e-03 9.424307e-21
0.13           4.015050e-01 -7.946733e-02 -4.632095e-19 3.099922e-01 -8.283852e-02 -4.722014e-19 9.151280e-02 3.371184e-03 8.991971e-21
0.14           4.151242e-01 -7.394580e-02 -4.518223e-19 3.241884e-01 -7.722539e-02 -4.604364e-19 9.093574e-02 3.279591e-03 8.614044e-21
0.15           4.243546e-01 -6.932592e-02 -4.416258e-19 3.339983e-01 -7.251265e-02 -4.499009e-19 9.035628e-02 3.186721e-03 8.275044e-21
0.16           4.301181e-01 -6.543254e-02 -4.323879e-19 3.403454e-01 -6.852598e-02 -4.403576e-19 8.977265e-02 3.093435e-03 7.969669e-21
0.17           4.327877e-01 -5.922414e-02 -4.247661e-19 3.436042e-01 -6.222539e-02 -4.324771e-19 8.918346e-02 3.001248e-03 7.711059e-21
0.18           4.304554e-01 -5.588643e-02 -4.175123e-19 3.418690e-01 -5.879699e-02 -4.249903e-19 8.858638e-02 2.910561e-03 7.477961e-21
0.19           4.265672e-01 -5.295809e-02 -4.108678e-19 3.385855e-01 -5.577928e-02 -4.181378e-19 8.798167e-02 2.821187e-03 7.270010e-21
0.2            4.228027e-01 -4.977773e-02 -4.048653e-19 3.354317e-01 -5.251029e-02 -4.119512e-19 8.737105e-02 2.732563e-03 7.085944e-21
0.21           4.189575e-01 -4.665668e-02 -3.994521e-19 3.322012e-01 -4.930100e-02 -4.063814e-19 8.675627e-02 2.644325e-03 6.929249e-21
0.22           4.155033e-01 -4.367713e-02 -3.946751e-19 3.293638e-01 -4.623310e-02 -4.014769e-19 8.613946e-02 2.555967e-03 6.801782e-21
0.23           4.131008e-01 -4.287457e-02 -3.912050e-19 3.275778e-01 -4.534034e-02 -3.979215e-19 8.552302e-02 2.465762e-03 6.716467e-21
0.24           4.116518e-01 -4.243519e-02 -3.883008e-19 3.267425e-01 -4.480841e-02 -3.949603e-19 8.490931e-02 2.373225e-03 6.659516e-21
0.25           4.110041e-01 -4.007246e-02 -3.850555e-19 3.267035e-01 -4.235195e-02 -3.916686e-19 8.430060e-02 2.279492e-03 6.613144e-21
0.26           4.112463e-01 -3.768801e-02 -3.821154e-19 3.275475e-01 -3.987275e-02 -3.887068e-19 8.369881e-02 2.184738e-03 6.591359e-21
0.27           4.102616e-01 -3.358245e-02 -3.795519e-19 3.271573e-01 -3.567270e-02 -3.861588e-19 8.310425e-02 2.090241e-03 6.606915e-21
0.28           4.095720e-01 -2.928961e-02 -3.771038e-19 3.270540e-01 -3.128620e-02 -3.837484e-19 8.251797e-02 1.996589e-03 6.644553e-21
0.29           4.107857e-01 -2.624984e-02 -3.745589e-19 3.288439e-01 -2.815349e-02 -3.812481e-19 8.194176e-02 1.903651e-03 6.689208e-21
0.3            4.121580e-01 -2.266174e-02 -3.722004e-19 3.307820e-01 -2.447392e-02 -3.789526e-19 8.137600e-02 1.812177e-03 6.752134e-21
0.31           4.132088e-01 -1.721169e-02 -3.704053e-19 3.323883e-01 -1.893530e-02 -3.772426e-19 8.082049e-02 1.723602e-03 6.837343e-21
0.32           4.146826e-01 -1.227083e-02 -3.683417e-19 3.344071e-01 -1.390951e-02 -3.752609e-19 8.027554e-02 1.638683e-03 6.919253e-21
0.33           4.170773e-01 -6.600368e-03 -3.661043e-19 3.373356e-01 -8.158907e-03 -3.730989e-19 7.974167e-02 1.558539e-03 6.994566e-21
0.34           4.155117e-01 -5.258971e-03 -3.642775e-19 3.362957e-01 -6.740157e-03 -3.713721e-19 7.921608e-02 1.481186e-03 7.094626e-21
0.35           4.129511e-01 -4.529078e-03 -3.625349e-19 3.342532e-01 -5.935633e-03 -3.697318e-19 7.869796e-02 1.406554e-03 7.196843e-21
0.36           4.069185e-01 -2.147002e-03 -3.619645e-19 3.287340e-01 -3.482379e-03 -3.692986e-19 7.818450e-02 1.335376e-03 7.334082e-21
0.37           4.077396e-01 1.519035e-03 -3.596483e-19 3.300594e-01 2.488023e-04 -3.670380e-19 7.768015e-02 1.270233e-03 7.389698e-21
0.38           4.080621e-01 3.529474e-03 -3.574127e-19 3.308779e-01 2.319413e-03 -3.648487e-19 7.718423e-02 1.210061e-03 7.436042e-21
0.39           4.072736e-01 2.189440e-03 -3.552166e-19 3.305780e-01 1.036686e-03 -3.626898e-19 7.669564e-02 1.152753e-03 7.473277e-21
0.4            4.077476e-01 5.066376e-03 -3.525377e-19 3.315325e-01 3.965389e-03 -3.600173e-19 7.621506e-02 1.100987e-03 7.479612e-21
0.41           4.085250e-01 8.647659e-03 -3.498648e-19 3.327828e-01 7.592543e-03 -3.573399e-19 7.574225e-02 1.055116e-03 7.475152e-21
0.42           4.096339e-01 9.458497e-03 -3.467661e-19 3.343568e-01 8.445095e-03 -3.542133e-19 7.527715e-02 1.013402e-03 7.447186e-21
0.43           4.098110e-01 8.068392e-03 -3.440926e-19 3.349925e-01 7.094096e-03 -3.515313e-19 7.481844e-02 9.742960e-04 7.438663e-21
0.44           4.099713e-01 8.814483e-03 -3.415120e-19 3.356056e-01 7.875568e-03 -3.489496e-19 7.436570e-02 9.389149e-04 7.437594e-21
0.45           4.096735e-01 8.713979e-03 -3.388132e-19 3.357552e-01 7.807534e-03 -3.462466e-19 7.391832e-02 9.064448e-04 7.433466e-21
0.46           4.093341e-01 8.950972e-03 -3.359731e-19 3.358580e-01 8.074279e-03 -3.434039e-19 7.347605e-02 8.766924e-04 7.430817e-21
0.47           4.097760e-01 1.010148e-02 -3.331124e-19 3.367368e-01 9.251679e-03 -3.405502e-19 7.303918e-02 8.498045e-04 7.437785e-21
0.48           4.103899e-01 1.174193e-02 -3.301558e-19 3.377821e-01 1.091629e-02 -3.376091e-19 7.260778e-02 8.256434e-04 7.453264e-21
0.49           4.115832e-01 1.309531e-02 -3.271666e-19 3.394009e-01 1.229160e-02 -3.346465e-19 7.218228e-02 8.037117e-04 7.479915e-21
0.5            4.128843e-01 1.463337e-02 -3.241224e-19 3.411213e-01 1.384950e-02 -3.316427e-19 7.176295e-02 7.838712e-04 7.520276e-21
0.51           4.142591e-01 1.634367e-02 -3.210361e-19 3.429090e-01 1.557756e-02 -3.286114e-19 7.135007e-02 7.661077e-04 7.575295e-21
0.52           4.156982e-01 1.815383e-02 -3.179191e-19 3.447542e-01 1.740331e-02 -3.255639e-19 7.094403e-02 7.505125e-04 7.644843e-21
0.53           4.171860e-01 1.870639e-02 -3.145967e-19 3.466407e-01 1.796986e-02 -3.223174e-19 7.054530e-02 7.365360e-04 7.720743e-21
0.54           4.188776e-01 2.096766e-02 -3.114508e-19 3.487232e-01 2.024227e-02 -3.192681e-19 7.015436e-02 7.253896e-04 7.817322e-21
0.55           4.209866e-01 2.282204e-02 -3.082319e-19 3.512147e-01 2.210517e-02 -3.161518e-19 6.977199e-02 7.168742e-04 7.919899e-21
0.56           4.233831e-01 2.455020e-02 -3.049361e-19 3.539842e-01 2.383912e-02 -3.129644e-19 6.939889e-02 7.110851e-04 8.028261e-21
0.57           4.259434e-01 2.510590e-02 -3.017523e-19 3.569078e-01 2.439831e-02 -3.098847e-19 6.903558e-02 7.075882e-04 8.132387e-21
0.58           4.286676e-01 2.550570e-02 -2.984439e-19 3.599850e-01 2.479907e-02 -3.066811e-19 6.868263e-02 7.066308e-04 8.237211e-21
0.59           4.316416e-01 2.494640e-02 -2.951178e-19 3.633009e-01 2.423845e-02 -3.034490e-19 6.834070e-02 7.079418e-04 8.331229e-21
0.6            4.343925e-01 2.569783e-02 -2.916453e-19 3.663821e-01 2.498525e-02 -3.000717e-19 6.801043e-02 7.125799e-04 8.426458e-21
0.61           4.370730e-01 2.671331e-02 -2.882366e-19 3.693795e-01 2.599237e-02 -2.967513e-19 6.769349e-02 7.209392e-04 8.514663e-21
0.62           4.393302e-01 2.856078e-02 -2.848675e-19 3.719392e-01 2.782716e-02 -2.934604e-19 6.739100e-02 7.336202e-04 8.592905e-21
0.63           4.414574e-01 2.707082e-02 -2.817479e-19 3.743625e-01 2.632211e-02 -2.904076e-19 6.709488e-02 7.487006e-04 8.659690e-21
0.64           4.452914e-01 2.283527e-02 -2.786854e-19 3.784880e-01 2.207137e-02 -2.874007e-19 6.680340e-02 7.638970e-04 8.715323e-21
0.65           4.457324e-01 2.269253e-02 -2.746513e-19 3.792012e-01 2.190508e-02 -2.834109e-19 6.653120e-02 7.874519e-04 8.759683e-21
0.66           4.468896e-01 2.393939e-02 -2.726966e-19 3.806125e-01 2.312427e-02 -2.815006e-19 6.627709e-02 8.151186e-04 8.803953e-21
0.67           4.484720e-01 2.480944e-02 -2.699789e-19 3.824360e-01 2.396179e-02 -2.788095e-19 6.603604e-02 8.476541e-04 8.830521e-21
0.68           4.522541e-01 2.477781e-02 -2.660719e-19 3.864474e-01 2.389243e-02 -2.749125e-19 6.580674e-02 8.853796e-04 8.840637e-21
0.69           4.568514e-01 2.454192e-02 -2.600662e-19 3.912669e-01 2.361124e-02 -2.688936e-19 6.558447e-02 9.306813e-04 8.827387e-21
0.7            4.584881e-01 3.135652e-02 -2.624598e-19 3.931039e-01 3.037757e-02 -2.712977e-19 6.538424e-02 9.789508e-04 8.837834e-21
0.71           4.597542e-01 3.607399e-02 -2.610133e-19 3.945585e-01 3.504055e-02 -2.698515e-19 6.519570e-02 1.033437e-03 8.838212e-21
0.72           4.635972e-01 4.423691e-02 -2.587847e-19 3.985788e-01 4.314114e-02 -2.675957e-19 6.501841e-02 1.095778e-03 8.810955e-21
0.73           4.689296e-01 4.863386e-02 -2.563328e-19 4.040786e-01 4.747107e-02 -2.651095e-19 6.485093e-02 1.162792e-03 8.776729e-21
0.74           4.685751e-01 4.822910e-02 -2.552709e-19 4.038853e-01 4.699802e-02 -2.640512e-19 6.468974e-02 1.231080e-03 8.780323e-21
0.75           4.702973e-01 4.647496e-02 -2.549486e-19 4.057559e-01 4.517099e-02 -2.637203e-19 6.454142e-02 1.303974e-03 8.771780e-21
0.76           4.730721e-01 4.768555e-02 -2.533598e-19 4.086654e-01 4.630621e-02 -2.621005e-19 6.440670e-02 1.379340e-03 8.740665e-21
0.77           4.752628e-01 4.997004e-02 -2.517102e-19 4.109748e-01 4.851250e-02 -2.604318e-19 6.428795e-02 1.457541e-03 8.721613e-21
0.78           4.780369e-01 5.267356e-02 -2.501412e-19 4.138585e-01 5.113615e-02 -2.588492e-19 6.417837e-02 1.537412e-03 8.707966e-21
0.79           4.805033e-01 5.580827e-02 -2.486664e-19 4.164261e-01 5.418963e-02 -2.573639e-19 6.407712e-02 1.618648e-03 8.697580e-21
0.8            4.860093e-01 6.034913e-02 -2.471763e-19 4.220242e-01 5.864748e-02 -2.558491e-19 6.398510e-02 1.701651e-03 8.672764e-21
0.81           4.887474e-01 6.289010e-02 -2.459972e-19 4.248471e-01 6.110484e-02 -2.546657e-19 6.390023e-02 1.785266e-03 8.668512e-21
0.82           4.925733e-01 6.634189e-02 -2.449445e-19 4.287504e-01 6.447278e-02 -2.536066e-19 6.382290e-02 1.869110e-03 8.662133e-21
0.83           4.943242e-01 7.031779e-02 -2.436508e-19 4.305727e-01 6.836420e-02 -2.523007e-19 6.375147e-02 1.953596e-03 8.649866e-21
0.84           4.949291e-01 7.449322e-02 -2.423250e-19 4.312442e-01 7.245460e-02 -2.509651e-19 6.368494e-02 2.038624e-03 8.640167e-21
0.85           4.951723e-01 7.704093e-02 -2.410763e-19 4.315495e-01 7.491800e-02 -2.497105e-19 6.362282e-02 2.122936e-03 8.634264e-21
0.86           4.953041e-01 8.123548e-02 -2.397603e-19 4.317392e-01 7.902839e-02 -2.483967e-19 6.356494e-02 2.207090e-03 8.636387e-21
0.87           4.965722e-01 8.044664e-02 -2.371467e-19 4.330600e-01 7.815918e-02 -2.457646e-19 6.351213e-02 2.287460e-03 8.617850e-21
0.88           4.980672e-01 7.986898e-02 -2.331782e-19 4.346034e-01 7.750684e-02 -2.417639e-19 6.346380e-02 2.362139e-03 8.585717e-21
0.89           4.935801e-01 8.192094e-02 -2.283113e-19 4.301557e-01 7.948747e-02 -2.368767e-19 6.342438e-02 2.433470e-03 8.565381e-21
0.9            4.956655e-01 8.340601e-02 -2.299744e-19 4.322815e-01 8.089644e-02 -2.385520e-19 6.338403e-02 2.509566e-03 8.577607e-21
0.91           4.948165e-01 8.720865e-02 -2.287747e-19 4.314710e-01 8.462128e-02 -2.373523e-19 6.334547e-02 2.587371e-03 8.577638e-21
0.92           4.926480e-01 8.968197e-02 -2.266825e-19 4.293390e-01 8.701670e-02 -2.352508e-19 6.330892e-02 2.665273e-03 8.568378e-21
0.93           4.905117e-01 9.201030e-02 -2.242867e-19 4.272372e-01 8.926699e-02 -2.328446e-19 6.327449e-02 2.743309e-03 8.557825e-21
0.94           4.897179e-01 9.262373e-02 -2.231136e-19 4.264746e-01 8.980261e-02 -2.316638e-19 6.324327e-02 2.821125e-03 8.550176e-21
0.95           4.887676e-01 9.258043e-02 -2.219602e-19 4.255525e-01 8.968178e-02 -2.305015e-19 6.321507e-02 2.898649e-03 8.541255e-21
0.96           4.866661e-01 9.264774e-02 -2.200010e-19 4.234773e-01 8.967169e-02 -2.285284e-19 6.318880e-02 2.976047e-03 8.527406e-21
0.97           4.842782e-01 9.323370e-02 -2.177755e-19 4.211142e-01 9.017982e-02 -2.262877e-19 6.316402e-02 3.053888e-03 8.512181e-21
0.98           4.820674e-01 9.317394e-02 -2.155088e-19 4.189269e-01 9.004186e-02 -2.240032e-19 6.314056e-02 3.132077e-03 8.494411e-21
0.99           4.803866e-01 9.322306e-02 -2.131967e-19 4.172682e-01 9.001216e-02 -2.216724e-19 6.311845e-02 3.210902e-03 8.475694e-21
1              4.780629e-01 9.184678e-02 -2.108246e-19 4.149659e-01 8.855711e-02 -2.192756e-19 6.309700e-02 3.289672e-03 8.450932e-21
1.01           4.761949e-01 9.057678e-02 -2.083817e-19 4.131187e-01 8.720827e-02 -2.168041e-19 6.307619e-02 3.368513e-03 8.422403e-21
1.02           4.746010e-01 9.024004e-02 -2.064035e-19 4.115451e-01 8.679202e-02 -2.148124e-19 6.305590e-02 3.448026e-03 8.408903e-21
1.03           4.738878e-01 8.803211e-02 -2.043850e-19 4.108513e-01 8.450494e-02 -2.127784e-19 6.303642e-02 3.527174e-03 8.393413e-21
1.04           4.745189e-01 8.424242e-02 -2.024312e-19 4.115005e-01 8.063735e-02 -2.108049e-19 6.301834e-02 3.605070e-03 8.373713e-21
1.05           4.730761e-01 8.313241e-02 -1.999356e-19 4.100778e-01 7.944955e-02 -2.082904e-19 6.299835e-02 3.682862e-03 8.354846e-21
1.06           4.715150e-01 8.099231e-02 -1.976306e-19 4.085379e-01 7.723236e-02 -2.059628e-19 6.297711e-02 3.759945e-03 8.332188e-21
1.07           4.719479e-01 7.808882e-02 -1.952728e-19 4.089919e-01 7.425293e-02 -2.035821e-19 6.295607e-02 3.835889e-03 8.309335e-21
1.08           4.729328e-01 7.514285e-02 -1.929210e-19 4.099974e-01 7.123234e-02 -2.012050e-19 6.293543e-02 3.910510e-03 8.283913e-21
1.09           4.748152e-01 7.331276e-02 -1.902010e-19 4.119010e-01 6.932853e-02 -1.984580e-19 6.291420e-02 3.984229e-03 8.256947e-21
1.1            4.775680e-01 6.998583e-02 -1.876954e-19 4.146741e-01 6.592962e-02 -1.959274e-19 6.289387e-02 4.056208e-03 8.231958e-21
1.11           4.802512e-01 6.590658e-02 -1.854356e-19 4.173765e-01 6.178075e-02 -1.936403e-19 6.287472e-02 4.125827e-03 8.204608e-21
1.12           4.850818e-01 5.839023e-02 -1.835887e-19 4.222242e-01 5.419933e-02 -1.917475e-19 6.285764e-02 4.190900e-03 8.158790e-21
1.13           4.883811e-01 5.491076e-02 -1.816936e-19 4.255396e-01 5.065726e-02 -1.898244e-19 6.284151e-02 4.253501e-03 8.130852e-21
1.14           4.922739e-01 5.269568e-02 -1.799494e-19 4.294475e-01 4.838151e-02 -1.880619e-19 6.282647e-02 4.314163e-03 8.112511e-21
1.15           4.934470e-01 5.134278e-02 -1.784563e-19 4.306365e-01 4.696970e-02 -1.865519e-19 6.281050e-02 4.373081e-03 8.095630e-21
1.16           4.952845e-01 4.807680e-02 -1.767684e-19 4.324907e-01 4.364790e-02 -1.848389e-19 6.279388e-02 4.428905e-03 8.070472e-21
1.17           4.996777e-01 4.397337e-02 -1.751900e-19 4.368997e-01 3.949239e-02 -1.832360e-19 6.277792e-02 4.480979e-03 8.045996e-21
1.18           5.035688e-01 4.024652e-02 -1.737597e-19 4.408066e-01 3.571723e-02 -1.817853e-19 6.276216e-02 4.529286e-03 8.025606e-21
1.19           5.066282e-01 3.731571e-02 -1.721818e-19 4.438822e-01 3.274163e-02 -1.801943e-19 6.274601e-02 4.574085e-03 8.012512e-21
1.2            5.100476e-01 3.359122e-02 -1.707048e-19 4.473180e-01 2.897647e-02 -1.787053e-19 6.272954e-02 4.614757e-03 8.000481e-21
1.21           5.141066e-01 3.012107e-02 -1.692619e-19 4.513935e-01 2.546978e-02 -1.772515e-19 6.271306e-02 4.651295e-03 7.989670e-21
1.22           5.216300e-01 2.667759e-02 -1.680497e-19 4.589315e-01 2.199399e-02 -1.760184e-19 6.269849e-02 4.683595e-03 7.968709e-21
1.23           5.262265e-01 2.643662e-02 -1.666691e-19 4.635423e-01 2.172331e-02 -1.746327e-19 6.268424e-02 4.713310e-03 7.963555e-21
1.24           5.300081e-01 2.725744e-02 -1.651798e-19 4.673381e-01 2.251645e-02 -1.731457e-19 6.266993e-02 4.740993e-03 7.965908e-21
1.25           5.368783e-01 2.731136e-02 -1.640487e-19 4.742209e-01 2.254523e-02 -1.720062e-19 6.265735e-02 4.766128e-03 7.957497e-21
1.26           5.394715e-01 2.597974e-02 -1.630300e-19 4.768275e-01 2.119197e-02 -1.709980e-19 6.264400e-02 4.787772e-03 7.968062e-21
1.27           5.405576e-01 2.503680e-02 -1.618199e-19 4.779283e-01 2.023071e-02 -1.698155e-19 6.262929e-02 4.806088e-03 7.995619e-21
1.28           5.452526e-01 2.397690e-02 -1.607973e-19 4.826370e-01 1.915586e-02 -1.688172e-19 6.261559e-02 4.821044e-03 8.019954e-21
1.29           5.502987e-01 2.084236e-02 -1.605008e-19 4.876954e-01 1.601095e-02 -1.685491e-19 6.260334e-02 4.831409e-03 8.048234e-21
1.3            5.528059e-01 1.849919e-02 -1.613642e-19 4.902147e-01 1.366178e-02 -1.694395e-19 6.259120e-02 4.837419e-03 8.075298e-21
1.31           5.549365e-01 1.881358e-02 -1.590919e-19 4.923566e-01 1.397326e-02 -1.671879e-19 6.257982e-02 4.840328e-03 8.095952e-21
1.32           5.543973e-01 2.086674e-02 -1.571120e-19 4.918336e-01 1.602504e-02 -1.652297e-19 6.256373e-02 4.841704e-03 8.117749e-21
1.33           5.584848e-01 1.974182e-02 -1.552578e-19 4.959379e-01 1.490174e-02 -1.634152e-19 6.254695e-02 4.840084e-03 8.157466e-21
1.34           5.641268e-01 1.811459e-02 -1.536095e-19 5.015971e-01 1.327912e-02 -1.618160e-19 6.252973e-02 4.835467e-03 8.206501e-21
1.35           5.657181e-01 1.836682e-02 -1.522365e-19 5.032094e-01 1.353778e-02 -1.604914e-19 6.250863e-02 4.829045e-03 8.254929e-21
1.36           5.654491e-01 1.916549e-02 -1.510958e-19 5.029640e-01 1.434444e-02 -1.594027e-19 6.248506e-02 4.821051e-03 8.306880e-21
1.37           5.647263e-01 2.033879e-02 -1.499219e-19 5.022672e-01 1.552704e-02 -1.582818e-19 6.245905e-02 4.811754e-03 8.359951e-21
1.38           5.646657e-01 2.137736e-02 -1.487451e-19 5.022346e-01 1.657621e-02 -1.571525e-19 6.243108e-02 4.801149e-03 8.407358e-21
1.39           5.645662e-01 2.267862e-02 -1.475537e-19 5.021650e-01 1.788915e-02 -1.560074e-19 6.240123e-02 4.789466e-03 8.453743e-21
1.4            5.651651e-01 2.329446e-02 -1.465119e-19 5.027952e-01 1.851805e-02 -1.550047e-19 6.236987e-02 4.776416e-03 8.492721e-21
1.41           5.634257e-01 2.416809e-02 -1.454019e-19 5.010900e-01 1.940580e-02 -1.539345e-19 6.233561e-02 4.762292e-03 8.532556e-21
1.42           5.616177e-01 2.283136e-02 -1.445122e-19 4.993195e-01 1.808545e-02 -1.530804e-19 6.229822e-02 4.745916e-03 8.568231e-21
1.43           5.616619e-01 2.133484e-02 -1.436426e-19 4.994031e-01 1.660762e-02 -1.522417e-19 6.225876e-02 4.727217e-03 8.599058e-21
1.44           5.611006e-01 2.150158e-02 -1.425776e-19 4.988837e-01 1.679429e-02 -1.512079e-19 6.221696e-02 4.707291e-03 8.630334e-21
1.45           5.585720e-01 2.091624e-02 -1.414071e-19 4.964004e-01 1.623040e-02 -1.500608e-19 6.217164e-02 4.685839e-03 8.653721e-21
1.46           5.563006e-01 2.046284e-02 -1.402899e-19 4.941775e-01 1.579968e-02 -1.489684e-19 6.212315e-02 4.663162e-03 8.678563e-21
1.47           5.543670e-01 1.682988e-02 -1.395495e-19 4.922955e-01 1.219229e-02 -1.482474e-19 6.207146e-02 4.637589e-03 8.697904e-21
1.48           5.512563e-01 1.518560e-02 -1.385067e-19 4.892402e-01 1.057521e-02 -1.472227e-19 6.201604e-02 4.610389e-03 8.716010e-21
1.49           5.485074e-01 1.878407e-02 -1.372008e-19 4.865500e-01 1.419924e-02 -1.459443e-19 6.195742e-02 4.584824e-03 8.743546e-21
1.5            5.456299e-01 2.237978e-02 -1.359551e-19 4.837342e-01 1.781858e-02 -1.447233e-19 6.189568e-02 4.561198e-03 8.768210e-21
1.51           5.421299e-01 2.421454e-02 -1.347650e-19 4.802993e-01 1.967581e-02 -1.435491e-19 6.183062e-02 4.538731e-03 8.784124e-21
1.52           5.386859e-01 2.627319e-02 -1.336104e-19 4.769234e-01 2.175543e-02 -1.424079e-19 6.176246e-02 4.517758e-03 8.797523e-21
1.53           5.360258e-01 2.748365e-02 -1.326746e-19 4.743341e-01 2.298564e-02 -1.414779e-19 6.169173e-02 4.498004e-03 8.803348e-21
1.54           5.324121e-01 2.875001e-02 -1.317095e-19 4.707940e-01 2.427031e-02 -1.405196e-19 6.161806e-02 4.479702e-03 8.810088e-21
1.55           5.289206e-01 3.596222e-02 -1.302795e-19 4.673789e-01 3.149572e-02 -1.390960e-19 6.154177e-02 4.466500e-03 8.816483e-21
1.56           5.316720e-01 4.093047e-02 -1.295887e-19 4.702056e-01 3.647311e-02 -1.383871e-19 6.146643e-02 4.457360e-03 8.798407e-21
1.57           5.304929e-01 4.356540e-02 -1.285887e-19 4.691030e-01 3.911428e-02 -1.373806e-19 6.138994e-02 4.451117e-03 8.791869e-21
1.58           5.290157e-01 4.870501e-02 -1.274377e-19 4.677034e-01 4.425553e-02 -1.362314e-19 6.131237e-02 4.449481e-03 8.793723e-21
1.59           5.293440e-01 5.382053e-02 -1.264484e-19 4.681091e-01 4.936790e-02 -1.352416e-19 6.123489e-02 4.452624e-03 8.793225e-21
1.6            5.295968e-01 5.454752e-02 -1.258577e-19 4.684393e-01 5.008933e-02 -1.346509e-19 6.115749e-02 4.458188e-03 8.793132e-21
1.61           5.265842e-01 5.640612e-02 -1.251315e-19 4.655059e-01 5.193923e-02 -1.339206e-19 6.107834e-02 4.466889e-03 8.789079e-21
1.62           5.227087e-01 5.865993e-02 -1.244951e-19 4.617117e-01 5.418082e-02 -1.332796e-19 6.099703e-02 4.479112e-03 8.784457e-21
1.63           5.190051e-01 6.076005e-02 -1.239068e-19 4.580913e-01 5.626513e-02 -1.326844e-19 6.091376e-02 4.494918e-03 8.777573e-21
1.64           5.153841e-01 6.268335e-02 -1.233800e-19 4.545554e-01 5.816903e-02 -1.321479e-19 6.082869e-02 4.514321e-03 8.767855e-21
1.65           5.120145e-01 6.380590e-02 -1.229353e-19 4.512724e-01 5.926891e-02 -1.316917e-19 6.074205e-02 4.537000e-03 8.756426e-21
1.66           5.086874e-01 6.431284e-02 -1.226986e-19 4.480335e-01 5.975018e-02 -1.314453e-19 6.065394e-02 4.562664e-03 8.746629e-21
1.67           5.052048e-01 6.998713e-02 -1.217245e-19 4.446404e-01 6.539285e-02 -1.304548e-19 6.056442e-02 4.594285e-03 8.730280e-21
1.68           5.019132e-01 7.193621e-02 -1.214283e-19 4.414394e-01 6.730643e-02 -1.301452e-19 6.047379e-02 4.629773e-03 8.716911e-21
1.69           4.992348e-01 7.251192e-02 -1.216002e-19 4.388522e-01 6.784364e-02 -1.302975e-19 6.038253e-02 4.668287e-03 8.697296e-21
1.7            5.000017e-01 7.116173e-02 -1.219580e-19 4.397090e-01 6.645305e-02 -1.306218e-19 6.029267e-02 4.708679e-03 8.663828e-21
1.71           4.978413e-01 7.212792e-02 -1.219668e-19 4.376384e-01 6.737578e-02 -1.306071e-19 6.020292e-02 4.752140e-03 8.640207e-21
1.72           4.948374e-01 7.318787e-02 -1.219656e-19 4.347244e-01 6.838920e-02 -1.305837e-19 6.011303e-02 4.798662e-03 8.618075e-21
1.73           4.902996e-01 7.208063e-02 -1.221527e-19 4.302773e-01 6.723377e-02 -1.307424e-19 6.002227e-02 4.846861e-03 8.589685e-21
1.74           4.866854e-01 7.213158e-02 -1.222289e-19 4.267539e-01 6.723431e-02 -1.307950e-19 5.993150e-02 4.897265e-03 8.566120e-21
1.75           4.830238e-01 7.479947e-02 -1.222601e-19 4.231826e-01 6.984806e-02 -1.307877e-19 5.984115e-02 4.951408e-03 8.527565e-21
1.76           4.778702e-01 7.474676e-02 -1.225487e-19 4.181198e-01 6.973933e-02 -1.310422e-19 5.975037e-02 5.007429e-03 8.493502e-21
1.77           4.722524e-01 7.703074e-02 -1.228219e-19 4.125931e-01 7.196425e-02 -1.312942e-19 5.965928e-02 5.066482e-03 8.472337e-21
1.78           4.726207e-01 7.994756e-02 -1.225161e-19 4.130491e-01 7.481874e-02 -1.309460e-19 5.957163e-02 5.128829e-03 8.429897e-21
1.79           4.732452e-01 8.099522e-02 -1.225734e-19 4.137575e-01 7.580214e-02 -1.309654e-19 5.948765e-02 5.193087e-03 8.391948e-21
1.8            4.718112e-01 8.335646e-02 -1.222355e-19 4.124048e-01 7.809668e-02 -1.305960e-19 5.940639e-02 5.259776e-03 8.360444e-21
1.81           4.703434e-01 8.723876e-02 -1.224558e-19 4.110154e-01 8.190915e-02 -1.307870e-19 5.932795e-02 5.329603e-03 8.331246e-21
1.82           4.653418e-01 8.877392e-02 -1.227855e-19 4.060913e-01 8.337298e-02 -1.311000e-19 5.925055e-02 5.400943e-03 8.314513e-21
1.83           4.606474e-01 8.843107e-02 -1.233542e-19 4.014728e-01 8.295861e-02 -1.316499e-19 5.917453e-02 5.472456e-03 8.295716e-21
1.84           4.549671e-01 8.734072e-02 -1.239533e-19 3.958675e-01 8.179728e-02 -1.322340e-19 5.909959e-02 5.543436e-03 8.280638e-21
1.85           4.520545e-01 8.655972e-02 -1.247215e-19 3.930270e-01 8.094589e-02 -1.329781e-19 5.902747e-02 5.613824e-03 8.256607e-21
1.86           4.508291e-01 8.419575e-02 -1.258541e-19 3.918699e-01 7.851333e-02 -1.340761e-19 5.895918e-02 5.682420e-03 8.222026e-21
1.87           4.481936e-01 8.223821e-02 -1.268477e-19 3.892995e-01 7.648906e-02 -1.350388e-19 5.889413e-02 5.749150e-03 8.191107e-21
1.88           4.469794e-01 8.559160e-02 -1.273303e-19 3.881460e-01 7.977472e-02 -1.354953e-19 5.883341e-02 5.816879e-03 8.164953e-21
1.89           4.386144e-01 7.992257e-02 -1.284197e-19 3.798413e-01 7.404256e-02 -1.365776e-19 5.877306e-02 5.880009e-03 8.157976e-21
1.9            4.340495e-01 8.030868e-02 -1.290739e-19 3.753339e-01 7.436699e-02 -1.372101e-19 5.871558e-02 5.941690e-03 8.136212e-21
1.91           4.448943e-01 7.747021e-02 -1.310645e-19 3.862252e-01 7.147014e-02 -1.391185e-19 5.866910e-02 6.000067e-03 8.053947e-21
1.92           4.411054e-01 8.054484e-02 -1.314839e-19 3.824794e-01 7.448671e-02 -1.395143e-19 5.862605e-02 6.058138e-03 8.030443e-21
1.93           4.390417e-01 7.979533e-02 -1.324126e-19 3.804542e-01 7.368174e-02 -1.404107e-19 5.858741e-02 6.113592e-03 7.998077e-21
1.94           4.355560e-01 8.005986e-02 -1.331703e-19 3.770032e-01 7.389303e-02 -1.411442e-19 5.855278e-02 6.166822e-03 7.973872e-21
1.95           4.327676e-01 7.960358e-02 -1.337726e-19 3.742448e-01 7.338637e-02 -1.417201e-19 5.852281e-02 6.217212e-03 7.947549e-21
1.96           4.282374e-01 7.681123e-02 -1.351868e-19 3.697410e-01 7.054800e-02 -1.431335e-19 5.849633e-02 6.263236e-03 7.946695e-21
1.97           4.241412e-01 7.686436e-02 -1.355056e-19 3.656661e-01 7.055833e-02 -1.434048e-19 5.847505e-02 6.306034e-03 7.899147e-21
1.98           4.209346e-01 7.558851e-02 -1.360708e-19 3.624755e-01 6.924357e-02 -1.439402e-19 5.845910e-02 6.344946e-03 7.869432e-21
1.99           4.175610e-01 7.692237e-02 -1.365372e-19 3.591126e-01 7.054106e-02 -1.443825e-19 5.844845e-02 6.381308e-03 7.845344e-21
2              4.143074e-01 7.838568e-02 -1.371769e-19 3.558642e-01 7.197063e-02 -1.450017e-19 5.844314e-02 6.415047e-03 7.824768e-21
2.01           4.108502e-01 7.738029e-02 -1.379381e-19 3.524071e-01 7.093573e-02 -1.457398e-19 5.844311e-02 6.444555e-03 7.801755e-21
2.02           4.076272e-01 7.582881e-02 -1.387103e-19 3.491785e-01 6.935950e-02 -1.464883e-19 5.844866e-02 6.469308e-03 7.777981e-21
2.03           4.056489e-01 7.432534e-02 -1.395112e-19 3.471883e-01 6.783618e-02 -1.472626e-19 5.846060e-02 6.489161e-03 7.751381e-21
2.04           4.044373e-01 7.451824e-02 -1.401314e-19 3.459577e-01 6.801336e-02 -1.478545e-19 5.847955e-02 6.504877e-03 7.723107e-21
2.05           4.002613e-01 7.345372e-02 -1.407817e-19 3.417569e-01 6.693832e-02 -1.484813e-19 5.850444e-02 6.515399e-03 7.699582e-21
2.06           4.001631e-01 7.397479e-02 -1.405165e-19 3.416299e-01 6.745319e-02 -1.481819e-19 5.853317e-02 6.521603e-03 7.665384e-21
2.07           4.004489e-01 7.116738e-02 -1.411149e-19 3.418845e-01 6.464455e-02 -1.487588e-19 5.856446e-02 6.522825e-03 7.643878e-21
2.08           4.015046e-01 6.941724e-02 -1.414837e-19 3.429070e-01 6.289713e-02 -1.491102e-19 5.859765e-02 6.520109e-03 7.626436e-21
2.09           4.035918e-01 7.212545e-02 -1.403569e-19 3.449611e-01 6.561006e-02 -1.479745e-19 5.863065e-02 6.515390e-03 7.617645e-21
2.1            4.036549e-01 7.080478e-02 -1.407769e-19 3.449871e-01 6.429810e-02 -1.484046e-19 5.866785e-02 6.506682e-03 7.627735e-21
2.11           4.041883e-01 6.996635e-02 -1.411233e-19 3.454786e-01 6.347217e-02 -1.487604e-19 5.870969e-02 6.494179e-03 7.637105e-21
2.12           4.050481e-01 6.922903e-02 -1.414259e-19 3.462919e-01 6.275109e-02 -1.490721e-19 5.875625e-02 6.477939e-03 7.646188e-21
2.13           4.061086e-01 6.850183e-02 -1.417422e-19 3.473010e-01 6.204384e-02 -1.493976e-19 5.880755e-02 6.457990e-03 7.655394e-21
2.14           4.074479e-01 6.828327e-02 -1.420259e-19 3.485844e-01 6.184860e-02 -1.496909e-19 5.886354e-02 6.434676e-03 7.665017e-21
2.15           4.098685e-01 7.133387e-02 -1.418190e-19 3.509440e-01 6.492380e-02 -1.494850e-19 5.892455e-02 6.410064e-03 7.666045e-21
2.16           4.118835e-01 7.196828e-02 -1.419131e-19 3.528936e-01 6.558555e-02 -1.495849e-19 5.898984e-02 6.382733e-03 7.671835e-21
2.17           4.139813e-01 7.159336e-02 -1.419392e-19 3.549223e-01 6.524122e-02 -1.496178e-19 5.905897e-02 6.352137e-03 7.678665e-21
2.18           4.161893e-01 7.098168e-02 -1.419334e-19 3.570578e-01 6.466345e-02 -1.496183e-19 5.913156e-02 6.318229e-03 7.684969e-21
2.19           4.190503e-01 7.307984e-02 -1.415111e-19 3.598429e-01 6.679709e-02 -1.492012e-19 5.920739e-02 6.282744e-03 7.690178e-21
2.2            4.211795e-01 7.134430e-02 -1.415311e-19 3.618938e-01 6.510073e-02 -1.492269e-19 5.928568e-02 6.243574e-03 7.695823e-21
2.21           4.230358e-01 6.984510e-02 -1.414059e-19 3.636699e-01 6.364411e-02 -1.491065e-19 5.936589e-02 6.200992e-03 7.700575e-21
2.22           4.237643e-01 6.788023e-02 -1.412095e-19 3.643173e-01 6.172535e-02 -1.489192e-19 5.944692e-02 6.154887e-03 7.709756e-21