# Force       
# CofR        : (2.000000e-01 2.000000e-01 5.000000e-02)
#
# Time        	total_x total_y total_z	pressure_x pressure_y pressure_z	viscous_x viscous_y viscous_z
0.01           3.820731e-02 -1.658767e-04 -1.629837e-20 3.671087e-02 -1.682718e-04 8.163319e-22 1.496436e-03 2.395060e-06 -1.711471e-20
0.02           1.767192e-03 1.321481e-04 3.085969e-23 5.589889e-04 1.291910e-04 4.952284e-23 1.208203e-03 2.957151e-06 -1.866315e-23
0.03           2.247286e-03 -2.403326e-06 9.834895e-23 1.241616e-03 1.449678e-06 1.006848e-22 1.005670e-03 -3.853005e-06 -2.335870e-24
0.04           1.934245e-03 -6.308238e-06 8.340792e-23 1.061418e-03 8.080366e-09 7.545528e-23 8.728268e-04 -6.316318e-06 7.952640e-24
0.05           1.738245e-03 -1.138069e-05 8.093770e-23 9.576869e-04 -4.056867e-06 6.644539e-23 7.805582e-04 -7.323824e-06 1.449231e-23
0.06           1.597354e-03 -1.416001e-05 8.055894e-23 8.839459e-04 -6.472743e-06 6.124455e-23 7.134085e-04 -7.687264e-06 1.931438e-23
0.07           1.491817e-03 -1.556781e-05 8.118259e-23 8.291409e-04 -7.855536e-06 5.807620e-23 6.626758e-04 -7.712271e-06 2.310639e-23
0.08           1.410337e-03 -1.656098e-05 8.227432e-23 7.871870e-04 -8.996358e-06 5.600430e-23 6.231504e-04 -7.564618e-06 2.627002e-23
0.09           1.346288e-03 -1.689044e-05 8.356956e-23 7.547184e-04 -9.570221e-06 5.446734e-23 5.915701e-04 -7.320215e-06 2.910222e-23
0.1            1.294363e-03 -1.684005e-05 8.499969e-23 7.285829e-04 -9.816011e-06 5.334078e-23 5.657799e-04 -7.024044e-06 3.165892e-23
0.11           1.251865e-03 -1.692737e-05 8.656140e-23 7.075266e-04 -1.021191e-05 5.251820e-23 5.443388e-04 -6.715467e-06 3.404320e-23
0.12           1.216759e-03 -1.660176e-05 8.805167e-23 6.905089e-04 -1.020702e-05 5.184975e-23 5.262502e-04 -6.394748e-06 3.620192e-23
0.13           1.187190e-03 -1.628289e-05 8.956181e-23 6.764026e-04 -1.019559e-05 5.130839e-23 5.107878e-04 -6.087306e-06 3.825342e-23
0.14           1.162146e-03 -1.599963e-05 9.109330e-23 6.647180e-04 -1.019860e-05 5.088080e-23 4.974281e-04 -5.801026e-06 4.021250e-23
0.15           1.140693e-03 -1.562747e-05 9.261699e-23 6.549146e-04 -1.009524e-05 5.053497e-23 4.857785e-04 -5.532232e-06 4.208203e-23
0.16           1.122397e-03 -1.529091e-05 9.413975e-23 6.468499e-04 -1.000256e-05 5.024843e-23 4.755473e-04 -5.288354e-06 4.389132e-23
0.17           1.106658e-03 -1.501734e-05 9.567521e-23 6.401526e-04 -9.948954e-06 5.002569e-23 4.665059e-04 -5.068389e-06 4.564952e-23
0.18           1.093142e-03 -1.474373e-05 9.722192e-23 6.346646e-04 -9.874220e-06 4.987280e-23 4.584771e-04 -4.869506e-06 4.734911e-23
0.19           1.081396e-03 -1.442980e-05 9.873955e-23 6.300825e-04 -9.741975e-06 4.973715e-23 4.513133e-04 -4.687829e-06 4.900239e-23
0.2            1.071272e-03 -1.419648e-05 1.002910e-22 6.263722e-04 -9.671107e-06 4.964894e-23 4.448999e-04 -4.525376e-06 5.064210e-23
0.21           1.062561e-03 -1.398247e-05 1.018674e-22 6.234181e-04 -9.600721e-06 4.962037e-23 4.391427e-04 -4.381753e-06 5.224707e-23
0.22           1.055214e-03 -1.364520e-05 1.034174e-22 6.212449e-04 -9.399330e-06 4.959667e-23 4.339693e-04 -4.245868e-06 5.382069e-23
0.23           1.048791e-03 -1.354037e-05 1.049242e-22 6.194846e-04 -9.417605e-06 4.952173e-23 4.293062e-04 -4.122764e-06 5.540242e-23
0.24           1.043164e-03 -1.354384e-05 1.064171e-22 6.180646e-04 -9.525383e-06 4.947446e-23 4.250994e-04 -4.018459e-06 5.694261e-23
0.25           1.038616e-03 -1.340233e-05 1.079578e-22 6.173167e-04 -9.477215e-06 4.948122e-23 4.212996e-04 -3.925111e-06 5.847656e-23
0.26           1.034801e-03 -1.321716e-05 1.095263e-22 6.169404e-04 -9.377934e-06 4.953921e-23 4.178607e-04 -3.839228e-06 5.998705e-23
0.27           1.031644e-03 -1.308486e-05 1.110910e-22 6.168847e-04 -9.320289e-06 4.960226e-23 4.147594e-04 -3.764568e-06 6.148873e-23
0.28           1.029152e-03 -1.300928e-05 1.126749e-22 6.171820e-04 -9.309904e-06 4.969019e-23 4.119701e-04 -3.699376e-06 6.298475e-23
0.29           1.027300e-03 -1.283929e-05 1.142616e-22 6.178380e-04 -9.200954e-06 4.979694e-23 4.094616e-04 -3.638334e-06 6.446467e-23
0.3            1.025786e-03 -1.275670e-05 1.158451e-22 6.186010e-04 -9.163197e-06 4.991159e-23 4.071847e-04 -3.593498e-06 6.593354e-23
0.31           1.024760e-03 -1.269353e-05 1.174426e-22 6.196388e-04 -9.130030e-06 5.006254e-23 4.051207e-04 -3.563503e-06 6.738003e-23
0.32           1.024160e-03 -1.266059e-05 1.190376e-22 6.208778e-04 -9.120646e-06 5.023257e-23 4.032825e-04 -3.539947e-06 6.880501e-23
0.33           1.023909e-03 -1.259689e-05 1.206404e-22 6.222428e-04 -9.071063e-06 5.041785e-23 4.016661e-04 -3.525827e-06 7.022256e-23
0.34           1.024059e-03 -1.258900e-05 1.222271e-22 6.238341e-04 -9.077964e-06 5.060226e-23 4.002253e-04 -3.511038e-06 7.162485e-23
0.35           1.024541e-03 -1.249398e-05 1.237981e-22 6.255999e-04 -8.998656e-06 5.076732e-23 3.989410e-04 -3.495327e-06 7.303078e-23
0.36           1.025282e-03 -1.261100e-05 1.254150e-22 6.274730e-04 -9.127834e-06 5.100771e-23 3.978094e-04 -3.483166e-06 7.440732e-23
0.37           1.026228e-03 -1.253814e-05 1.268749e-22 6.294043e-04 -9.061962e-06 5.110365e-23 3.968236e-04 -3.476178e-06 7.577127e-23
0.38           1.027363e-03 -1.244963e-05 1.282889e-22 6.313853e-04 -8.973944e-06 5.118764e-23 3.959780e-04 -3.475689e-06 7.710124e-23
0.39           1.028751e-03 -1.227500e-05 1.297796e-22 6.335026e-04 -8.807386e-06 5.139760e-23 3.952486e-04 -3.467615e-06 7.838201e-23
0.4            1.030271e-03 -1.233997e-05 1.313229e-22 6.356579e-04 -8.883259e-06 5.170281e-23 3.946136e-04 -3.456715e-06 7.962006e-23
0.41           1.032025e-03 -1.229555e-05 1.328508e-22 6.379552e-04 -8.853502e-06 5.200327e-23 3.940703e-04 -3.442050e-06 8.084754e-23
0.42           1.033990e-03 -1.221829e-05 1.343633e-22 6.403744e-04 -8.795899e-06 5.231015e-23 3.936157e-04 -3.422389e-06 8.205312e-23
0.43           1.035948e-03 -1.215966e-05 1.358125e-22 6.426998e-04 -8.754194e-06 5.259529e-23 3.932485e-04 -3.405464e-06 8.321723e-23
0.44           1.037981e-03 -1.207092e-05 1.372064e-22 6.450163e-04 -8.680560e-06 5.285944e-23 3.929650e-04 -3.390362e-06 8.434693e-23
0.45           1.040179e-03 -1.202099e-05 1.385760e-22 6.474198e-04 -8.642141e-06 5.313561e-23 3.927593e-04 -3.378853e-06 8.544042e-23
0.46           1.042404e-03 -1.200995e-05 1.398882e-22 6.497824e-04 -8.638235e-06 5.338514e-23 3.926220e-04 -3.371712e-06 8.650306e-23
0.47           1.044731e-03 -1.188597e-05 1.411610e-22 6.521809e-04 -8.524323e-06 5.364881e-23 3.925498e-04 -3.361644e-06 8.751220e-23
0.48           1.047057e-03 -1.186351e-05 1.424123e-22 6.545229e-04 -8.511475e-06 5.394891e-23 3.925341e-04 -3.352039e-06 8.846344e-23
0.49           1.049391e-03 -1.182143e-05 1.435783e-22 6.568270e-04 -8.477203e-06 5.420927e-23 3.925644e-04 -3.344228e-06 8.936906e-23
0.5            1.051789e-03 -1.175772e-05 1.447014e-22 6.591489e-04 -8.423606e-06 5.445133e-23 3.926402e-04 -3.334117e-06 9.025006e-23
0.51           1.054319e-03 -1.163502e-05 1.457837e-22 6.615577e-04 -8.316893e-06 5.465376e-23 3.927616e-04 -3.318125e-06 9.112996e-23
0.52           1.056739e-03 -1.163372e-05 1.468588e-22 6.638157e-04 -8.328441e-06 5.492717e-23 3.929237e-04 -3.305279e-06 9.193159e-23
0.53           1.059154e-03 -1.153898e-05 1.478576e-22 6.660336e-04 -8.241469e-06 5.517350e-23 3.931204e-04 -3.297516e-06 9.268408e-23
0.54           1.061550e-03 -1.150565e-05 1.488134e-22 6.682078e-04 -8.214187e-06 5.542533e-23 3.933419e-04 -3.291461e-06 9.338807e-23
0.55           1.063919e-03 -1.141776e-05 1.496965e-22 6.703355e-04 -8.134446e-06 5.562872e-23 3.935839e-04 -3.283314e-06 9.406779e-23
0.56           1.066252e-03 -1.131907e-05 1.505334e-22 6.724077e-04 -8.046185e-06 5.583410e-23 3.938438e-04 -3.272888e-06 9.469926e-23
0.57           1.068660e-03 -1.116452e-05 1.513434e-22 6.745334e-04 -7.902751e-06 5.604629e-23 3.941271e-04 -3.261765e-06 9.529707e-23
0.58           1.070944e-03 -1.105263e-05 1.520771e-22 6.765187e-04 -7.801509e-06 5.621841e-23 3.944252e-04 -3.251122e-06 9.585867e-23
0.59           1.073152e-03 -1.095942e-05 1.527642e-22 6.784192e-04 -7.718282e-06 5.638559e-23 3.947324e-04 -3.241138e-06 9.637858e-23
0.6            1.075264e-03 -1.087149e-05 1.534210e-22 6.802171e-04 -7.638372e-06 5.656722e-23 3.950467e-04 -3.233117e-06 9.685378e-23
0.61           1.077294e-03 -1.082150e-05 1.540337e-22 6.819284e-04 -7.593912e-06 5.675434e-23 3.953652e-04 -3.227584e-06 9.727940e-23
0.62           1.079335e-03 -1.078246e-05 1.545979e-22 6.836458e-04 -7.557121e-06 5.691150e-23 3.956894e-04 -3.225343e-06 9.768636e-23
0.63           1.081258e-03 -1.069333e-05 1.551072e-22 6.852426e-04 -7.469581e-06 5.704350e-23 3.960156e-04 -3.223745e-06 9.806367e-23
0.64           1.083196e-03 -1.062722e-05 1.555838e-22 6.868552e-04 -7.411024e-06 5.716104e-23 3.963403e-04 -3.216198e-06 9.842273e-23
0.65           1.085081e-03 -1.054721e-05 1.560705e-22 6.884196e-04 -7.345716e-06 5.732828e-23 3.966614e-04 -3.201491e-06 9.874226e-23
0.66           1.086859e-03 -1.045138e-05 1.565018e-22 6.898830e-04 -7.265063e-06 5.745425e-23 3.969762e-04 -3.186322e-06 9.904753e-23
0.67           1.088589e-03 -1.037426e-05 1.569023e-22 6.913034e-04 -7.204134e-06 5.757048e-23 3.972858e-04 -3.170130e-06 9.933178e-23
0.68           1.090234e-03 -1.027153e-05 1.572525e-22 6.926455e-04 -7.118030e-06 5.765530e-23 3.975881e-04 -3.153495e-06 9.959723e-23
0.69           1.091821e-03 -1.024196e-05 1.575932e-22 6.939347e-04 -7.102493e-06 5.775782e-23 3.978860e-04 -3.139468e-06 9.983538e-23
0.7            1.093316e-03 -1.017464e-05 1.579174e-22 6.951390e-04 -7.049154e-06 5.785957e-23 3.981773e-04 -3.125484e-06 1.000578e-22
0.71           1.094744e-03 -1.011921e-05 1.582176e-22 6.962828e-04 -7.007413e-06 5.794950e-23 3.984609e-04 -3.111792e-06 1.002681e-22
0.72           1.096090e-03 -1.001427e-05 1.584910e-22 6.973582e-04 -6.921556e-06 5.802707e-23 3.987315e-04 -3.092710e-06 1.004639e-22
0.73           1.097368e-03 -9.961305e-06 1.587619e-22 6.983805e-04 -6.891844e-06 5.812287e-23 3.989879e-04 -3.069461e-06 1.006390e-22
0.74           1.098581e-03 -9.827789e-06 1.589700e-22 6.993458e-04 -6.784081e-06 5.816055e-23 3.992351e-04 -3.043708e-06 1.008095e-22
0.75           1.099734e-03 -9.765496e-06 1.591907e-22 7.002586e-04 -6.744686e-06 5.822091e-23 3.994750e-04 -3.020809e-06 1.009698e-22
0.76           1.100803e-03 -9.734314e-06 1.593912e-22 7.010970e-04 -6.733484e-06 5.827268e-23 3.997058e-04 -3.000830e-06 1.011185e-22
0.77           1.101827e-03 -9.681995e-06 1.595753e-22 7.018996e-04 -6.700044e-06 5.831270e-23 3.999277e-04 -2.981951e-06 1.012626e-22
0.78           1.102783e-03 -9.625798e-06 1.597445e-22 7.026421e-04 -6.661951e-06 5.834612e-23 4.001404e-04 -2.963847e-06 1.013984e-22
0.79           1.103693e-03 -9.566013e-06 1.599053e-22 7.033484e-04 -6.619819e-06 5.837494e-23 4.003441e-04 -2.946194e-06 1.015303e-22
0.8            1.104528e-03 -9.492259e-06 1.600478e-22 7.039901e-04 -6.563932e-06 5.840127e-23 4.005381e-04 -2.928327e-06 1.016465e-22
0.81           1.105314e-03 -9.483040e-06 1.601802e-22 7.045908e-04 -6.570293e-06 5.842752e-23 4.007228e-04 -2.912748e-06 1.017527e-22
0.82           1.106047e-03 -9.459200e-06 1.603097e-22 7.051493e-04 -6.560626e-06 5.845232e-23 4.008979e-04 -2.898574e-06 1.018574e-22
0.83           1.106739e-03 -9.430531e-06 1.604285e-22 7.056747e-04 -6.545372e-06 5.846650e-23 4.010638e-04 -2.885159e-06 1.019620e-22
0.84           1.107382e-03 -9.496990e-06 1.605528e-22 7.061606e-04 -6.620939e-06 5.850232e-23 4.012214e-04 -2.876051e-06 1.020505e-22
0.85           1.107977e-03 -9.456067e-06 1.606531e-22 7.066070e-04 -6.589876e-06 5.850525e-23 4.013695e-04 -2.866191e-06 1.021478e-22
0.86           1.108457e-03 -9.448791e-06 1.607556e-22 7.069503e-04 -6.591532e-06 5.852063e-23 4.015065e-04 -2.857259e-06 1.022350e-22
0.87           1.108879e-03 -9.443098e-06 1.608514e-22 7.072462e-04 -6.594130e-06 5.853645e-23 4.016326e-04 -2.848968e-06 1.023150e-22
0.88           1.109318e-03 -9.426095e-06 1.609412e-22 7.075670e-04 -6.585314e-06 5.854519e-23 4.017506e-04 -2.840781e-06 1.023960e-22
0.89           1.109766e-03 -9.427961e-06 1.610329e-22 7.079031e-04 -6.594446e-06 5.855021e-23 4.018627e-04 -2.833515e-06 1.024827e-22
0.9            1.110155e-03 -9.439405e-06 1.611159e-22 7.081875e-04 -6.611999e-06 5.855063e-23 4.019674e-04 -2.827406e-06 1.025653e-22
0.91           1.110491e-03 -9.451282e-06 1.611914e-22 7.084269e-04 -6.629033e-06 5.854586e-23 4.020642e-04 -2.822249e-06 1.026455e-22
0.92           1.110790e-03 -9.454060e-06 1.612650e-22 7.086367e-04 -6.636507e-06 5.854208e-23 4.021534e-04 -2.817553e-06 1.027229e-22
0.93           1.111067e-03 -9.496709e-06 1.613425e-22 7.088309e-04 -6.681897e-06 5.854751e-23 4.022360e-04 -2.814812e-06 1.027950e-22
0.94           1.111316e-03 -9.517040e-06 1.614140e-22 7.090044e-04 -6.704270e-06 5.854639e-23 4.023120e-04 -2.812770e-06 1.028676e-22
0.95           1.111534e-03 -9.531036e-06 1.614790e-22 7.091526e-04 -6.719984e-06 5.853742e-23 4.023815e-04 -2.811052e-06 1.029416e-22
0.96           1.111730e-03 -9.572256e-06 1.615477e-22 7.092849e-04 -6.761482e-06 5.853630e-23 4.024450e-04 -2.810774e-06 1.030114e-22
0.97           1.111892e-03 -9.625074e-06 1.616131e-22 7.093897e-04 -6.813024e-06 5.853424e-23 4.025025e-04 -2.812050e-06 1.030789e-22
0.98           1.112042e-03 -9.650856e-06 1.616769e-22 7.094879e-04 -6.837257e-06 5.853067e-23 4.025546e-04 -2.813599e-06 1.031462e-22
0.99           1.112173e-03 -9.664840e-06 1.617377e-22 7.095712e-04 -6.849937e-06 5.852410e-23 4.026016e-04 -2.814903e-06 1.032136e-22
1              1.112285e-03 -9.720942e-06 1.617998e-22 7.096408e-04 -6.903167e-06 5.852353e-23 4.026437e-04 -2.817775e-06 1.032763e-22
1.01           1.112390e-03 -9.787720e-06 1.618655e-22 7.097084e-04 -6.965355e-06 5.852313e-23 4.026819e-04 -2.822365e-06 1.033423e-22
1.02           1.112464e-03 -9.851118e-06 1.619246e-22 7.097486e-04 -7.022949e-06 5.852157e-23 4.027153e-04 -2.828170e-06 1.034030e-22
1.03           1.112524e-03 -9.891853e-06 1.619824e-22 7.097799e-04 -7.057778e-06 5.851727e-23 4.027445e-04 -2.834076e-06 1.034651e-22
1.04           1.112587e-03 -9.950781e-06 1.620415e-22 7.098172e-04 -7.109982e-06 5.851539e-23 4.027703e-04 -2.840799e-06 1.035261e-22
1.05           1.112623e-03 -9.995538e-06 1.620958e-22 7.098310e-04 -7.147798e-06 5.850776e-23 4.027925e-04 -2.847740e-06 1.035880e-22
1.06           1.112666e-03 -1.006178e-05 1.621522e-22 7.098542e-04 -7.206053e-06 5.850461e-23 4.028118e-04 -2.855724e-06 1.036476e-22
1.07           1.112686e-03 -1.012220e-05 1.622080e-22 7.098578e-04 -7.257803e-06 5.850175e-23 4.028279e-04 -2.864392e-06 1.037063e-22
1.08           1.112702e-03 -1.018315e-05 1.622626e-22 7.098610e-04 -7.309511e-06 5.849932e-23 4.028412e-04 -2.873637e-06 1.037632e-22
1.09           1.112695e-03 -1.023254e-05 1.623158e-22 7.098437e-04 -7.349568e-06 5.849622e-23 4.028515e-04 -2.882973e-06 1.038196e-22
1.1            1.112689e-03 -1.028743e-05 1.623677e-22 7.098295e-04 -7.394841e-06 5.849306e-23 4.028591e-04 -2.892592e-06 1.038747e-22
1.11           1.112657e-03 -1.036852e-05 1.624176e-22 7.097931e-04 -7.465037e-06 5.849114e-23 4.028637e-04 -2.903484e-06 1.039265e-22
1.12           1.112616e-03 -1.045739e-05 1.624667e-22 7.097501e-04 -7.541626e-06 5.849014e-23 4.028655e-04 -2.915759e-06 1.039766e-22
1.13           1.112590e-03 -1.052252e-05 1.625170e-22 7.097241e-04 -7.594297e-06 5.848775e-23 4.028655e-04 -2.928225e-06 1.040293e-22
1.14           1.112554e-03 -1.059145e-05 1.625665e-22 7.096899e-04 -7.650433e-06 5.848561e-23 4.028637e-04 -2.941022e-06 1.040809e-22
1.15           1.112519e-03 -1.066335e-05 1.626150e-22 7.096591e-04 -7.709082e-06 5.848381e-23 4.028603e-04 -2.954266e-06 1.041312e-22
1.16           1.112471e-03 -1.072850e-05 1.626630e-22 7.096154e-04 -7.760825e-06 5.848195e-23 4.028551e-04 -2.967679e-06 1.041810e-22
1.17           1.112423e-03 -1.079795e-05 1.627105e-22 7.095741e-04 -7.816532e-06 5.848037e-23 4.028485e-04 -2.981419e-06 1.042301e-22
1.18           1.112373e-03 -1.086617e-05 1.627570e-22 7.095323e-04 -7.870749e-06 5.847895e-23 4.028406e-04 -2.995426e-06 1.042781e-22
1.19           1.112317e-03 -1.093447e-05 1.628024e-22 7.094860e-04 -7.924777e-06 5.847754e-23 4.028313e-04 -3.009689e-06 1.043249e-22
1.2            1.112259e-03 -1.100154e-05 1.628472e-22 7.094380e-04 -7.977388e-06 5.847620e-23 4.028207e-04 -3.024150e-06 1.043710e-22
1.21           1.112194e-03 -1.106733e-05 1.628908e-22 7.093854e-04 -8.028577e-06 5.847470e-23 4.028089e-04 -3.038749e-06 1.044161e-22
1.22           1.112137e-03 -1.113602e-05 1.629367e-22 7.093407e-04 -8.082394e-06 5.847419e-23 4.027964e-04 -3.053621e-06 1.044626e-22
1.23           1.112081e-03 -1.120207e-05 1.629797e-22 7.092974e-04 -8.133437e-06 5.847352e-23 4.027832e-04 -3.068637e-06 1.045062e-22
1.24           1.112020e-03 -1.126809e-05 1.630243e-22 7.092504e-04 -8.184285e-06 5.847309e-23 4.027693e-04 -3.083805e-06 1.045512e-22
1.25           1.111958e-03 -1.133034e-05 1.630659e-22 7.092029e-04 -8.231354e-06 5.847220e-23 4.027546e-04 -3.098981e-06 1.045937e-22
1.26           1.111880e-03 -1.139873e-05 1.631071e-22 7.091414e-04 -8.284300e-06 5.847152e-23 4.027388e-04 -3.114427e-06 1.046356e-22
1.27           1.111810e-03 -1.146112e-05 1.631473e-22 7.090872e-04 -8.331244e-06 5.847080e-23 4.027223e-04 -3.129879e-06 1.046765e-22
1.28           1.111732e-03 -1.152814e-05 1.631865e-22 7.090271e-04 -8.382600e-06 5.847031e-23 4.027050e-04 -3.145538e-06 1.047162e-22
1.29           1.111664e-03 -1.158427e-05 1.632262e-22 7.089764e-04 -8.423301e-06 5.846950e-23 4.026873e-04 -3.160972e-06 1.047567e-22
1.3            1.111593e-03 -1.164306e-05 1.632649e-22 7.089234e-04 -8.466705e-06 5.846882e-23 4.026691e-04 -3.176352e-06 1.047961e-22
1.31           1.111520e-03 -1.169870e-05 1.633029e-22 7.088698e-04 -8.507086e-06 5.846809e-23 4.026506e-04 -3.191615e-06 1.048348e-22
1.32           1.111446e-03 -1.175199e-05 1.633400e-22 7.088149e-04 -8.545273e-06 5.846719e-23 4.026316e-04 -3.206718e-06 1.048728e-22
1.33           1.111379e-03 -1.180772e-05 1.633782e-22 7.087667e-04 -8.585910e-06 5.846687e-23 4.026125e-04 -3.221813e-06 1.049113e-22
1.34           1.111308e-03 -1.185996e-05 1.634147e-22 7.087151e-04 -8.623170e-06 5.846636e-23 4.025931e-04 -3.236786e-06 1.049483e-22
1.35           1.111239e-03 -1.190966e-05 1.634513e-22 7.086656e-04 -8.658072e-06 5.846570e-23 4.025735e-04 -3.251585e-06 1.049856e-22
1.36           1.111162e-03 -1.195278e-05 1.634858e-22 7.086089e-04 -8.686769e-06 5.846465e-23 4.025535e-04 -3.266010e-06 1.050211e-22
1.37           1.111096e-03 -1.200531e-05 1.635210e-22 7.085622e-04 -8.724778e-06 5.846413e-23 4.025335e-04 -3.280530e-06 1.050569e-22
1.38           1.111030e-03 -1.205537e-05 1.635559e-22 7.085164e-04 -8.760343e-06 5.846336e-23 4.025136e-04 -3.295030e-06 1.050925e-22
1.39           1.110960e-03 -1.209889e-05 1.635896e-22 7.084666e-04 -8.789632e-06 5.846230e-23 4.024935e-04 -3.309256e-06 1.051273e-22
1.4            1.110886e-03 -1.214221e-05 1.636224e-22 7.084131e-04 -8.818939e-06 5.846170e-23 4.024730e-04 -3.323274e-06 1.051607e-22
1.41           1.110815e-03 -1.218312e-05 1.636548e-22 7.083626e-04 -8.846072e-06 5.846078e-23 4.024525e-04 -3.337052e-06 1.051941e-22
1.42           1.110747e-03 -1.221823e-05 1.636869e-22 7.083146e-04 -8.867790e-06 5.845944e-23 4.024320e-04 -3.350444e-06 1.052274e-22
1.43           1.110677e-03 -1.225205e-05 1.637182e-22 7.082653e-04 -8.888575e-06 5.845804e-23 4.024113e-04 -3.363479e-06 1.052601e-22
1.44           1.110608e-03 -1.228367e-05 1.637490e-22 7.082169e-04 -8.907512e-06 5.845652e-23 4.023907e-04 -3.376157e-06 1.052924e-22
1.45           1.110540e-03 -1.231345e-05 1.637794e-22 7.081703e-04 -8.924959e-06 5.845487e-23 4.023701e-04 -3.388487e-06 1.053245e-22
1.46           1.110474e-03 -1.234085e-05 1.638092e-22 7.081242e-04 -8.940382e-06 5.845309e-23 4.023495e-04 -3.400464e-06 1.053561e-22
1.47           1.110408e-03 -1.236597e-05 1.638384e-22 7.080787e-04 -8.953902e-06 5.845120e-23 4.023290e-04 -3.412071e-06 1.053872e-22
1.48           1.110342e-03 -1.238894e-05 1.638672e-22 7.080337e-04 -8.965644e-06 5.844921e-23 4.023085e-04 -3.423301e-06 1.054180e-22
1.49           1.110277e-03 -1.240968e-05 1.638954e-22 7.079894e-04 -8.975533e-06 5.844706e-23 4.022881e-04 -3.434149e-06 1.054484e-22
1.5            1.110214e-03 -1.242825e-05 1.639232e-22 7.079458e-04 -8.983646e-06 5.844480e-23 4.022678e-04 -3.444603e-06 1.054784e-22
1.51           1.110150e-03 -1.244465e-05 1.639504e-22 7.079028e-04 -8.989991e-06 5.844239e-23 4.022476e-04 -3.454657e-06 1.055080e-22
1.52           1.110088e-03 -1.245875e-05 1.639771e-22 7.078602e-04 -8.994449e-06 5.843982e-23 4.022275e-04 -3.464301e-06 1.055372e-22
1.53           1.110026e-03 -1.247065e-05 1.640032e-22 7.078183e-04 -8.997127e-06 5.843714e-23 4.022075e-04 -3.473528e-06 1.055661e-22
1.54           1.109965e-03 -1.248038e-05 1.640290e-22 7.077771e-04 -8.998043e-06 5.843435e-23 4.021876e-04 -3.482334e-06 1.055946e-22
1.55           1.109904e-03 -1.248786e-05 1.640541e-22 7.077363e-04 -8.997146e-06 5.843142e-23 4.021678e-04 -3.490710e-06 1.056227e-22
1.56           1.109844e-03 -1.249310e-05 1.640787e-22 7.076963e-04 -8.994448e-06 5.842827e-23 4.021482e-04 -3.498650e-06 1.056504e-22
1.57           1.109787e-03 -1.249639e-05 1.641023e-22 7.076579e-04 -8.990237e-06 5.842503e-23 4.021287e-04 -3.506150e-06 1.056773e-22
1.58           1.109728e-03 -1.249709e-05 1.641260e-22 7.076189e-04 -8.983877e-06 5.842166e-23 4.021094e-04 -3.513210e-06 1.057043e-22
1.59           1.109671e-03 -1.249587e-05 1.641492e-22 7.075808e-04 -8.976051e-06 5.841814e-23 4.020902e-04 -3.519820e-06 1.057310e-22
1.6            1.109615e-03 -1.249260e-05 1.641719e-22 7.075433e-04 -8.966621e-06 5.841450e-23 4.020712e-04 -3.525981e-06 1.057574e-22
1.61           1.109559e-03 -1.248723e-05 1.641941e-22 7.075064e-04 -8.955539e-06 5.841072e-23 4.020523e-04 -3.531690e-06 1.057834e-22
1.62           1.109504e-03 -1.247984e-05 1.642159e-22 7.074701e-04 -8.942898e-06 5.840681e-23 4.020336e-04 -3.536946e-06 1.058091e-22
1.63           1.109449e-03 -1.247044e-05 1.642372e-22 7.074344e-04 -8.928691e-06 5.840278e-23 4.020150e-04 -3.541747e-06 1.058345e-22
1.64           1.109396e-03 -1.245907e-05 1.642581e-22 7.073993e-04 -8.912979e-06 5.839862e-23 4.019967e-04 -3.546094e-06 1.058595e-22
1.65           1.109343e-03 -1.244575e-05 1.642786e-22 7.073647e-04 -8.895765e-06 5.839436e-23 4.019785e-04 -3.549987e-06 1.058842e-22
1.66           1.109291e-03 -1.243054e-05 1.642986e-22 7.073307e-04 -8.877112e-06 5.838996e-23 4.019605e-04 -3.553428e-06 1.059086e-22
1.67           1.109240e-03 -1.241347e-05 1.643182e-22 7.072973e-04 -8.857049e-06 5.838548e-23 4.019427e-04 -3.556418e-06 1.059327e-22
1.68           1.109189e-03 -1.239458e-05 1.643373e-22 7.072644e-04 -8.835620e-06 5.838085e-23 4.019250e-04 -3.558959e-06 1.059564e-22
1.69           1.109140e-03 -1.237393e-05 1.643560e-22 7.072320e-04 -8.812879e-06 5.837613e-23 4.019075e-04 -3.561054e-06 1.059799e-22
1.7            1.109090e-03 -1.235159e-05 1.643743e-22 7.072002e-04 -8.788884e-06 5.837131e-23 4.018902e-04 -3.562707e-06 1.060030e-22
1.71           1.109042e-03 -1.232754e-05 1.643923e-22 7.071690e-04 -8.763622e-06 5.836640e-23 4.018731e-04 -3.563922e-06 1.060259e-22
1.72           1.108994e-03 -1.230186e-05 1.644098e-22 7.071382e-04 -8.737159e-06 5.836138e-23 4.018562e-04 -3.564704e-06 1.060484e-22
1.73           1.108947e-03 -1.227471e-05 1.644269e-22 7.071080e-04 -8.709640e-06 5.835631e-23 4.018395e-04 -3.565066e-06 1.060706e-22
1.74           1.108901e-03 -1.224589e-05 1.644436e-22 7.070783e-04 -8.680885e-06 5.835112e-23 4.018229e-04 -3.565003e-06 1.060925e-22
1.75           1.108856e-03 -1.221556e-05 1.644599e-22 7.070491e-04 -8.651040e-06 5.834584e-23 4.018065e-04 -3.564516e-06 1.061141e-22
1.76           1.108811e-03 -1.218375e-05 1.644759e-22 7.070203e-04 -8.620138e-06 5.834048e-23 4.017904e-04 -3.563610e-06 1.061354e-22
1.77           1.108766e-03 -1.215057e-05 1.644914e-22 7.069921e-04 -8.588279e-06 5.833504e-23 4.017744e-04 -3.562294e-06 1.061564e-22
1.78           1.108723e-03 -1.211611e-05 1.645067e-22 7.069643e-04 -8.555531e-06 5.832955e-23 4.017586e-04 -3.560576e-06 1.061771e-22
1.79           1.108680e-03 -1.208040e-05 1.645215e-22 7.069371e-04 -8.521935e-06 5.832400e-23 4.017429e-04 -3.558464e-06 1.061975e-22
1.8            1.108638e-03 -1.204357e-05 1.645361e-22 7.069102e-04 -8.487596e-06 5.831845e-23 4.017275e-04 -3.555975e-06 1.062176e-22
1.81           1.108596e-03 -1.200549e-05 1.645502e-22 7.068839e-04 -8.452379e-06 5.831278e-23 4.017122e-04 -3.553107e-06 1.062375e-22
1.82           1.108555e-03 -1.196625e-05 1.645641e-22 7.068580e-04 -8.416382e-06 5.830707e-23 4.016972e-04 -3.549867e-06 1.062570e-22
1.83           1.108515e-03 -1.192596e-05 1.645776e-22 7.068325e-04 -8.379696e-06 5.830132e-23 4.016823e-04 -3.546263e-06 1.062762e-22
1.84           1.108475e-03 -1.188465e-05 1.645907e-22 7.068075e-04 -8.342348e-06 5.829552e-23 4.016676e-04 -3.542304e-06 1.062952e-22
1.85           1.108435e-03 -1.184282e-05 1.646035e-22 7.067824e-04 -8.304803e-06 5.828972e-23 4.016530e-04 -3.538014e-06 1.063138e-22
1.86           1.108397e-03 -1.179987e-05 1.646160e-22 7.067581e-04 -8.266483e-06 5.828388e-23 4.016387e-04 -3.533389e-06 1.063322e-22
1.87           1.108359e-03 -1.175594e-05 1.646283e-22 7.067343e-04 -8.227508e-06 5.827800e-23 4.016245e-04 -3.528432e-06 1.063503e-22
1.88           1.108321e-03 -1.171120e-05 1.646402e-22 7.067109e-04 -8.188045e-06 5.827209e-23 4.016105e-04 -3.523153e-06 1.063681e-22
1.89           1.108285e-03 -1.166572e-05 1.646518e-22 7.066880e-04 -8.148154e-06 5.826618e-23 4.015967e-04 -3.517562e-06 1.063856e-22
1.9            1.108248e-03 -1.161955e-05 1.646631e-22 7.066654e-04 -8.107881e-06 5.826025e-23 4.015831e-04 -3.511669e-06 1.064029e-22
1.91           1.108213e-03 -1.157276e-05 1.646742e-22 7.066432e-04 -8.067277e-06 5.825431e-23 4.015696e-04 -3.505484e-06 1.064199e-22
1.92           1.108178e-03 -1.152541e-05 1.646850e-22 7.066214e-04 -8.026393e-06 5.824839e-23 4.015563e-04 -3.499019e-06 1.064366e-22
1.93           1.108143e-03 -1.147757e-05 1.646955e-22 7.066000e-04 -7.985283e-06 5.824246e-23 4.015432e-04 -3.492283e-06 1.064530e-22
1.94           1.108109e-03 -1.142926e-05 1.647057e-22 7.065789e-04 -7.943970e-06 5.823654e-23 4.015303e-04 -3.485286e-06 1.064692e-22
1.95           1.108076e-03 -1.138055e-05 1.647157e-22 7.065581e-04 -7.902506e-06 5.823064e-23 4.015175e-04 -3.478040e-06 1.064851e-22
1.96           1.108043e-03 -1.133149e-05 1.647254e-22 7.065377e-04 -7.860936e-06 5.822475e-23 4.015049e-04 -3.470554e-06 1.065007e-22
1.97           1.108010e-03 -1.128215e-05 1.647349e-22 7.065177e-04 -7.819310e-06 5.821890e-23 4.014925e-04 -3.462842e-06 1.065160e-22
1.98           1.107978e-03 -1.123257e-05 1.647442e-22 7.064979e-04 -7.777660e-06 5.821306e-23 4.014803e-04 -3.454912e-06 1.065311e-22
1.99           1.107947e-03 -1.118281e-05 1.647532e-22 7.064785e-04 -7.736030e-06 5.820726e-23 4.014682e-04 -3.446776e-06 1.065459e-22
2              1.107916e-03 -1.113291e-05 1.647620e-22 7.064594e-04 -7.694466e-06 5.820150e-23 4.014562e-04 -3.438446e-06 1.065605e-22
2.01           1.107885e-03 -1.108294e-05 1.647706e-22 7.064407e-04 -7.653003e-06 5.819578e-23 4.014445e-04 -3.429933e-06 1.065748e-22
2.02           1.107855e-03 -1.103292e-05 1.647789e-22 7.064222e-04 -7.611673e-06 5.819011e-23 4.014329e-04 -3.421247e-06 1.065888e-22
2.03           1.107825e-03 -1.098293e-05 1.647871e-22 7.064040e-04 -7.570530e-06 5.818447e-23 4.014214e-04 -3.412399e-06 1.066026e-22
2.04           1.107796e-03 -1.093302e-05 1.647950e-22 7.063862e-04 -7.529620e-06 5.817890e-23 4.014101e-04 -3.403403e-06 1.066161e-22
2.05           1.107768e-03 -1.088321e-05 1.648028e-22 7.063686e-04 -7.488948e-06 5.817338e-23 4.013990e-04 -3.394266e-06 1.066294e-22
2.06           1.107739e-03 -1.083359e-05 1.648104e-22 7.063514e-04 -7.448586e-06 5.816792e-23 4.013880e-04 -3.385002e-06 1.066424e-22
2.07           1.107711e-03 -1.078416e-05 1.648177e-22 7.063343e-04 -7.408540e-06 5.816252e-23 4.013771e-04 -3.375622e-06 1.066552e-22
2.08           1.107684e-03 -1.073505e-05 1.648249e-22 7.063176e-04 -7.368909e-06 5.815719e-23 4.013664e-04 -3.366138e-06 1.066677e-22
2.09           1.107657e-03 -1.068623e-05 1.648320e-22 7.063012e-04 -7.329667e-06 5.815193e-23 4.013559e-04 -3.356561e-06 1.066800e-22
2.1            1.107631e-03 -1.063784e-05 1.648388e-22 7.062850e-04 -7.290939e-06 5.814674e-23 4.013455e-04 -3.346905e-06 1.066921e-22
2.11           1.107604e-03 -1.058990e-05 1.648456e-22 7.062692e-04 -7.252719e-06 5.814165e-23 4.013352e-04 -3.337183e-06 1.067039e-22
2.12           1.107578e-03 -1.054182e-05 1.648520e-22 7.062528e-04 -7.214438e-06 5.813659e-23 4.013251e-04 -3.327380e-06 1.067154e-22
2.13           1.107552e-03 -1.049452e-05 1.648583e-22 7.062372e-04 -7.176999e-06 5.813162e-23 4.013151e-04 -3.317525e-06 1.067267e-22
2.14           1.107527e-03 -1.044747e-05 1.648645e-22 7.062219e-04 -7.139857e-06 5.812673e-23 4.013052e-04 -3.307617e-06 1.067378e-22
2.15           1.107502e-03 -1.040090e-05 1.648706e-22 7.062068e-04 -7.103231e-06 5.812191e-23 4.012955e-04 -3.297668e-06 1.067486e-22
2.16           1.107478e-03 -1.035539e-05 1.648765e-22 7.061921e-04 -7.067679e-06 5.811721e-23 4.012859e-04 -3.287708e-06 1.067593e-22
2.17           1.107454e-03 -1.031032e-05 1.648824e-22 7.061775e-04 -7.032587e-06 5.811260e-23 4.012764e-04 -3.277736e-06 1.067698e-22
2.18           1.107430e-03 -1.026594e-05 1.648881e-22 7.061633e-04 -6.998179e-06 5.810808e-23 4.012671e-04 -3.267766e-06 1.067800e-22
2.19           1.107407e-03 -1.022231e-05 1.648937e-22 7.061491e-04 -6.964505e-06 5.810368e-23 4.012579e-04 -3.257804e-06 1.067900e-22
2.2            1.107384e-03 -1.017933e-05 1.648992e-22 7.061354e-04 -6.931467e-06 5.809933e-23 4.012488e-04 -3.247859e-06 1.067998e-22