# Moment      
# CofR        : (2.000000e-01 2.000000e-01 5.000000e-01)
#
# Time        	total_x total_y total_z	pressure_x pressure_y pressure_z	viscous_x viscous_y viscous_z
0.01           3.683670e-14 3.035064e-14 -7.694723e+02 3.687577e-14 3.033745e-14 -7.690034e+02 -3.907308e-17 1.319452e-17 -4.688419e-01
0.02           -2.062947e-16 -1.927467e-16 1.150020e+00 -2.070565e-16 -1.925614e-16 1.615261e+00 7.617787e-19 -1.853114e-19 -4.652405e-01
0.03           -1.255322e-16 -1.071106e-16 8.879358e-01 -1.261535e-16 -1.069456e-16 1.349716e+00 6.212222e-19 -1.650072e-19 -4.617801e-01
0.04           -9.507177e-17 -8.131922e-17 2.119138e-01 -9.561775e-17 -8.115023e-17 6.703745e-01 5.459756e-19 -1.689918e-19 -4.584607e-01
0.05           -7.704994e-17 -6.569049e-17 -2.770163e-01 -7.753224e-17 -6.551366e-17 1.782290e-01 4.822950e-19 -1.768320e-19 -4.552453e-01
0.06           -6.478859e-17 -5.498212e-17 -7.000135e-01 -6.521269e-17 -5.479733e-17 -2.478611e-01 4.241029e-19 -1.847916e-19 -4.521524e-01
0.07           -5.571633e-17 -4.708577e-17 -1.043796e+00 -5.608628e-17 -4.689422e-17 -5.946205e-01 3.699536e-19 -1.915405e-19 -4.491755e-01
0.08           -4.884016e-17 -4.108073e-17 -1.317062e+00 -4.915996e-17 -4.088434e-17 -8.707616e-01 3.198022e-19 -1.963969e-19 -4.463008e-01
0.09           -4.345966e-17 -3.638114e-17 -1.543436e+00 -4.373351e-17 -3.618206e-17 -1.099918e+00 2.738540e-19 -1.990777e-19 -4.435183e-01
0.1            -3.915970e-17 -3.262798e-17 -1.730363e+00 -3.939212e-17 -3.242842e-17 -1.289547e+00 2.324172e-19 -1.995577e-19 -4.408157e-01
0.11           -3.565869e-17 -2.956229e-17 -1.887454e+00 -3.585428e-17 -2.936422e-17 -1.449271e+00 1.955886e-19 -1.980672e-19 -4.381835e-01
0.12           -3.277434e-17 -2.708881e-17 -1.994627e+00 -3.293782e-17 -2.689378e-17 -1.559035e+00 1.634732e-19 -1.950260e-19 -4.355920e-01
0.13           -3.037736e-17 -2.505872e-17 -2.070090e+00 -3.051314e-17 -2.486781e-17 -1.637072e+00 1.357758e-19 -1.909165e-19 -4.330185e-01
0.14           -2.837603e-17 -2.336721e-17 -2.125560e+00 -2.848797e-17 -2.318099e-17 -1.695110e+00 1.119384e-19 -1.862232e-19 -4.304497e-01
0.15           -2.665055e-17 -2.194326e-17 -2.161586e+00 -2.674187e-17 -2.176176e-17 -1.733715e+00 9.132028e-20 -1.815029e-19 -4.278710e-01
0.16           -2.515862e-17 -2.073511e-17 -2.182277e+00 -2.523180e-17 -2.055786e-17 -1.757005e+00 7.317380e-20 -1.772496e-19 -4.252721e-01
0.17           -2.397283e-17 -1.973949e-17 -2.183949e+00 -2.402941e-17 -1.956583e-17 -1.761306e+00 5.658825e-20 -1.736605e-19 -4.226432e-01
0.18           -2.291940e-17 -1.890089e-17 -2.166779e+00 -2.296007e-17 -1.872987e-17 -1.746806e+00 4.067340e-20 -1.710126e-19 -4.199725e-01
0.19           -2.201363e-17 -1.818183e-17 -2.142875e+00 -2.203825e-17 -1.801244e-17 -1.725613e+00 2.461708e-20 -1.693894e-19 -4.172615e-01
0.2            -2.124126e-17 -1.755376e-17 -2.119110e+00 -2.124898e-17 -1.738504e-17 -1.704591e+00 7.718644e-21 -1.687262e-19 -4.145191e-01
0.21           -2.058900e-17 -1.700870e-17 -2.095062e+00 -2.057847e-17 -1.683985e-17 -1.683308e+00 -1.053447e-20 -1.688516e-19 -4.117542e-01
0.22           -2.005034e-17 -1.653808e-17 -2.073144e+00 -2.001986e-17 -1.636857e-17 -1.664166e+00 -3.047610e-20 -1.695133e-19 -4.089779e-01
0.23           -1.967879e-17 -1.618566e-17 -2.060191e+00 -1.962658e-17 -1.601526e-17 -1.653986e+00 -5.220981e-20 -1.704055e-19 -4.062048e-01
0.24           -1.939225e-17 -1.588359e-17 -2.052466e+00 -1.931649e-17 -1.571241e-17 -1.649019e+00 -7.575745e-20 -1.711851e-19 -4.034471e-01
0.25           -1.909130e-17 -1.555123e-17 -2.045124e+00 -1.899033e-17 -1.537969e-17 -1.644410e+00 -1.009645e-19 -1.715408e-19 -4.007137e-01
0.26           -1.883649e-17 -1.524373e-17 -2.042012e+00 -1.870909e-17 -1.507251e-17 -1.643999e+00 -1.274001e-19 -1.712155e-19 -3.980135e-01
0.27           -1.868993e-17 -1.501615e-17 -2.029912e+00 -1.853540e-17 -1.484615e-17 -1.634566e+00 -1.545325e-19 -1.700014e-19 -3.953458e-01
0.28           -1.857295e-17 -1.480319e-17 -2.018889e+00 -1.839104e-17 -1.463549e-17 -1.626174e+00 -1.819023e-19 -1.677036e-19 -3.927148e-01
0.29           -1.840747e-17 -1.454296e-17 -2.019257e+00 -1.819846e-17 -1.437877e-17 -1.629127e+00 -2.090101e-19 -1.641931e-19 -3.901298e-01
0.3            -1.826623e-17 -1.429040e-17 -2.019398e+00 -1.803095e-17 -1.413097e-17 -1.631807e+00 -2.352813e-19 -1.594392e-19 -3.875914e-01
0.31           -1.819984e-17 -1.406326e-17 -2.014644e+00 -1.793953e-17 -1.390991e-17 -1.629548e+00 -2.603153e-19 -1.533581e-19 -3.850965e-01
0.32           -1.810027e-17 -1.381780e-17 -2.012837e+00 -1.781646e-17 -1.367173e-17 -1.630191e+00 -2.838070e-19 -1.460734e-19 -3.826457e-01
0.33           -1.798213e-17 -1.354830e-17 -2.014137e+00 -1.767670e-17 -1.341052e-17 -1.633897e+00 -3.054323e-19 -1.377813e-19 -3.802397e-01
0.34           -1.791178e-17 -1.336098e-17 -2.004221e+00 -1.758698e-17 -1.323222e-17 -1.626351e+00 -3.247997e-19 -1.287653e-19 -3.778691e-01
0.35           -1.785502e-17 -1.319246e-17 -1.990630e+00 -1.751315e-17 -1.307320e-17 -1.615099e+00 -3.418683e-19 -1.192562e-19 -3.755302e-01
0.36           -1.795831e-17 -1.313203e-17 -1.957400e+00 -1.760168e-17 -1.302267e-17 -1.584191e+00 -3.566321e-19 -1.093570e-19 -3.732085e-01
0.37           -1.783998e-17 -1.288782e-17 -1.954758e+00 -1.747038e-17 -1.278837e-17 -1.583837e+00 -3.696005e-19 -9.945538e-20 -3.709206e-01
0.38           -1.773197e-17 -1.264611e-17 -1.952704e+00 -1.735139e-17 -1.255609e-17 -1.584039e+00 -3.805751e-19 -9.001676e-20 -3.686652e-01
0.39           -1.762952e-17 -1.240674e-17 -1.951349e+00 -1.723971e-17 -1.232536e-17 -1.584908e+00 -3.898143e-19 -8.137721e-20 -3.664409e-01
0.4            -1.751130e-17 -1.214848e-17 -1.948464e+00 -1.711355e-17 -1.207470e-17 -1.584218e+00 -3.977461e-19 -7.377186e-20 -3.642458e-01
0.41           -1.740775e-17 -1.190181e-17 -1.945769e+00 -1.700305e-17 -1.183437e-17 -1.583691e+00 -4.047013e-19 -6.743533e-20 -3.620780e-01
0.42           -1.725653e-17 -1.164073e-17 -1.949652e+00 -1.684536e-17 -1.157799e-17 -1.589711e+00 -4.111718e-19 -6.274398e-20 -3.599405e-01
0.43           -1.715412e-17 -1.142965e-17 -1.953025e+00 -1.673664e-17 -1.136989e-17 -1.595195e+00 -4.174739e-19 -5.975460e-20 -3.578298e-01
0.44           -1.709969e-17 -1.124891e-17 -1.952473e+00 -1.667554e-17 -1.119061e-17 -1.596731e+00 -4.241511e-19 -5.829476e-20 -3.557418e-01
0.45           -1.706549e-17 -1.107224e-17 -1.951246e+00 -1.663381e-17 -1.101399e-17 -1.597571e+00 -4.316794e-19 -5.824768e-20 -3.536751e-01
0.46           -1.704051e-17 -1.089741e-17 -1.949214e+00 -1.660012e-17 -1.083794e-17 -1.597585e+00 -4.403914e-19 -5.946194e-20 -3.516286e-01
0.47           -1.703951e-17 -1.073980e-17 -1.949287e+00 -1.658900e-17 -1.067810e-17 -1.599684e+00 -4.505059e-19 -6.170095e-20 -3.496035e-01
0.48           -1.704927e-17 -1.058624e-17 -1.949305e+00 -1.658707e-17 -1.052156e-17 -1.601705e+00 -4.622012e-19 -6.467955e-20 -3.476003e-01
0.49           -1.708067e-17 -1.044366e-17 -1.952621e+00 -1.660515e-17 -1.037557e-17 -1.607000e+00 -4.755186e-19 -6.808654e-20 -3.456219e-01
0.5            -1.712897e-17 -1.031030e-17 -1.956123e+00 -1.663856e-17 -1.023870e-17 -1.612453e+00 -4.904060e-19 -7.159434e-20 -3.436697e-01
0.51           -1.719281e-17 -1.018548e-17 -1.959669e+00 -1.668609e-17 -1.011061e-17 -1.617924e+00 -5.067247e-19 -7.487117e-20 -3.417452e-01
0.52           -1.726863e-17 -1.006637e-17 -1.963344e+00 -1.674437e-17 -9.988767e-18 -1.623494e+00 -5.242574e-19 -7.759822e-20 -3.398500e-01
0.53           -1.732524e-17 -9.935413e-18 -1.969517e+00 -1.678249e-17 -9.855843e-18 -1.631529e+00 -5.427464e-19 -7.957074e-20 -3.379875e-01
0.54           -1.741357e-17 -9.818381e-18 -1.973593e+00 -1.685176e-17 -9.737934e-18 -1.637435e+00 -5.618076e-19 -8.044642e-20 -3.361575e-01
0.55           -1.749404e-17 -9.688912e-18 -1.980405e+00 -1.691290e-17 -9.608847e-18 -1.646041e+00 -5.811361e-19 -8.006462e-20 -3.343644e-01
0.56           -1.756647e-17 -9.545076e-18 -1.988825e+00 -1.696612e-17 -9.466747e-18 -1.656214e+00 -6.003512e-19 -7.832969e-20 -3.326111e-01
0.57           -1.761819e-17 -9.417867e-18 -2.000142e+00 -1.699901e-17 -9.342643e-18 -1.669241e+00 -6.191757e-19 -7.522376e-20 -3.309010e-01
0.58           -1.766927e-17 -9.284649e-18 -2.012526e+00 -1.703201e-17 -9.213860e-18 -1.683290e+00 -6.372587e-19 -7.078875e-20 -3.292364e-01
0.59           -1.769938e-17 -9.161393e-18 -2.027836e+00 -1.704497e-17 -9.096259e-18 -1.700215e+00 -6.544128e-19 -6.513438e-20 -3.276208e-01
0.6            -1.773157e-17 -8.999373e-18 -2.039716e+00 -1.706122e-17 -8.940983e-18 -1.713661e+00 -6.703484e-19 -5.838976e-20 -3.260554e-01
0.61           -1.775432e-17 -8.823812e-18 -2.050783e+00 -1.706934e-17 -8.773086e-18 -1.726236e+00 -6.849762e-19 -5.072557e-20 -3.245473e-01
0.62           -1.777130e-17 -8.634139e-18 -2.058320e+00 -1.707305e-17 -8.591774e-18 -1.735219e+00 -6.982496e-19 -4.236462e-20 -3.231007e-01
0.63           -1.775192e-17 -8.428548e-18 -2.071241e+00 -1.704170e-17 -8.394975e-18 -1.749560e+00 -7.102193e-19 -3.357335e-20 -3.216804e-01
0.64           -1.772043e-17 -8.122413e-18 -2.097296e+00 -1.699955e-17 -8.097593e-18 -1.777014e+00 -7.208727e-19 -2.482010e-20 -3.202819e-01
0.65           -1.759717e-17 -8.202776e-18 -2.099697e+00 -1.686648e-17 -8.187722e-18 -1.780736e+00 -7.306943e-19 -1.505367e-20 -3.189607e-01
0.66           -1.755578e-17 -8.026483e-18 -2.103035e+00 -1.681628e-17 -8.021229e-18 -1.785316e+00 -7.394973e-19 -5.253678e-21 -3.177187e-01
0.67           -1.750695e-17 -7.831790e-18 -2.109092e+00 -1.675940e-17 -7.836182e-18 -1.792562e+00 -7.475505e-19 4.392033e-21 -3.165302e-01
0.68           -1.745872e-17 -7.644650e-18 -2.127330e+00 -1.670368e-17 -7.658416e-18 -1.811941e+00 -7.550407e-19 1.376615e-20 -3.153885e-01
0.69           -1.739747e-17 -7.495818e-18 -2.149848e+00 -1.663536e-17 -7.518779e-18 -1.835581e+00 -7.621100e-19 2.296095e-20 -3.142665e-01
0.7            -1.729804e-17 -7.150904e-18 -2.145463e+00 -1.652901e-17 -7.182110e-18 -1.832219e+00 -7.690324e-19 3.120596e-20 -3.132444e-01
0.71           -1.735229e-17 -7.025504e-18 -2.143074e+00 -1.657628e-17 -7.064431e-18 -1.830808e+00 -7.760136e-19 3.892681e-20 -3.122665e-01
0.72           -1.738040e-17 -6.849889e-18 -2.146852e+00 -1.659710e-17 -6.896179e-18 -1.835524e+00 -7.833031e-19 4.629022e-20 -3.113279e-01
0.73           -1.731948e-17 -6.600562e-18 -2.164557e+00 -1.652857e-17 -6.653829e-18 -1.854130e+00 -7.909152e-19 5.326765e-20 -3.104274e-01
0.74           -1.738799e-17 -6.595890e-18 -2.163608e+00 -1.658940e-17 -6.655757e-18 -1.854053e+00 -7.985904e-19 5.986769e-20 -3.095551e-01
0.75           -1.748655e-17 -6.544577e-18 -2.175056e+00 -1.667958e-17 -6.610918e-18 -1.866320e+00 -8.069760e-19 6.634096e-20 -3.087361e-01
0.76           -1.744324e-17 -6.431047e-18 -2.186220e+00 -1.662741e-17 -6.503669e-18 -1.878243e+00 -8.158350e-19 7.262195e-20 -3.079778e-01
0.77           -1.742433e-17 -6.276035e-18 -2.192648e+00 -1.659944e-17 -6.354844e-18 -1.885357e+00 -8.248879e-19 7.880880e-20 -3.072909e-01
0.78           -1.741406e-17 -6.123893e-18 -2.201121e+00 -1.657978e-17 -6.208817e-18 -1.894476e+00 -8.342769e-19 8.492384e-20 -3.066450e-01
0.79           -1.741105e-17 -5.980672e-18 -2.207341e+00 -1.656707e-17 -6.071707e-18 -1.901304e+00 -8.439778e-19 9.103510e-20 -3.060364e-01
0.8            -1.744712e-17 -5.826033e-18 -2.225619e+00 -1.659345e-17 -5.923241e-18 -1.920151e+00 -8.536713e-19 9.720793e-20 -3.054687e-01
0.81           -1.753312e-17 -5.741605e-18 -2.234212e+00 -1.666981e-17 -5.845153e-18 -1.929278e+00 -8.633098e-19 1.035475e-19 -3.049341e-01
0.82           -1.763993e-17 -5.660504e-18 -2.246386e+00 -1.676698e-17 -5.770670e-18 -1.941951e+00 -8.729431e-19 1.101661e-19 -3.044349e-01
0.83           -1.767701e-17 -5.562406e-18 -2.247656e+00 -1.679447e-17 -5.679423e-18 -1.943693e+00 -8.825373e-19 1.170178e-19 -3.039627e-01
0.84           -1.771947e-17 -5.484712e-18 -2.243067e+00 -1.682755e-17 -5.608798e-18 -1.939554e+00 -8.919199e-19 1.240855e-19 -3.035128e-01
0.85           -1.776139e-17 -5.413603e-18 -2.239670e+00 -1.686046e-17 -5.544986e-18 -1.936585e+00 -9.009285e-19 1.313835e-19 -3.030852e-01
0.86           -1.782605e-17 -5.326637e-18 -2.232775e+00 -1.691667e-17 -5.465585e-18 -1.930097e+00 -9.093760e-19 1.389475e-19 -3.026780e-01
0.87           -1.786574e-17 -5.254858e-18 -2.240303e+00 -1.694845e-17 -5.401306e-18 -1.938002e+00 -9.172884e-19 1.464480e-19 -3.023017e-01
0.88           -1.789931e-17 -5.126989e-18 -2.248541e+00 -1.697513e-17 -5.280557e-18 -1.946584e+00 -9.241772e-19 1.535678e-19 -3.019572e-01
0.89           -1.783048e-17 -5.240646e-18 -2.223331e+00 -1.690034e-17 -5.401503e-18 -1.921670e+00 -9.301473e-19 1.608563e-19 -3.016609e-01
0.9            -1.787780e-17 -5.275251e-18 -2.230688e+00 -1.694275e-17 -5.443453e-18 -1.929337e+00 -9.350520e-19 1.682015e-19 -3.013508e-01
0.91           -1.790350e-17 -5.225034e-18 -2.219788e+00 -1.696450e-17 -5.400520e-18 -1.918743e+00 -9.390038e-19 1.754862e-19 -3.010455e-01
0.92           -1.791181e-17 -5.216944e-18 -2.204946e+00 -1.696975e-17 -5.399429e-18 -1.904197e+00 -9.420682e-19 1.824847e-19 -3.007489e-01
0.93           -1.792254e-17 -5.219072e-18 -2.190520e+00 -1.697832e-17 -5.408110e-18 -1.890058e+00 -9.442256e-19 1.890379e-19 -3.004615e-01
0.94           -1.800351e-17 -5.280338e-18 -2.185622e+00 -1.705792e-17 -5.475408e-18 -1.885434e+00 -9.455888e-19 1.950709e-19 -3.001886e-01
0.95           -1.808316e-17 -5.350366e-18 -2.181154e+00 -1.713689e-17 -5.550864e-18 -1.881225e+00 -9.462762e-19 2.004986e-19 -2.999295e-01
0.96           -1.811021e-17 -5.391475e-18 -2.170961e+00 -1.716383e-17 -5.596693e-18 -1.871282e+00 -9.463771e-19 2.052179e-19 -2.996786e-01
0.97           -1.811549e-17 -5.408236e-18 -2.158457e+00 -1.716951e-17 -5.617393e-18 -1.859024e+00 -9.459815e-19 2.091571e-19 -2.994329e-01
0.98           -1.812095e-17 -5.434538e-18 -2.147965e+00 -1.717572e-17 -5.646796e-18 -1.848774e+00 -9.452258e-19 2.122584e-19 -2.991916e-01
0.99           -1.812922e-17 -5.457613e-18 -2.139820e+00 -1.718499e-17 -5.672102e-18 -1.840865e+00 -9.442326e-19 2.144887e-19 -2.989544e-01
1              -1.811556e-17 -5.488374e-18 -2.131153e+00 -1.717243e-17 -5.704231e-18 -1.832434e+00 -9.431343e-19 2.158565e-19 -2.987194e-01
1.01           -1.809028e-17 -5.505255e-18 -2.124481e+00 -1.714826e-17 -5.721627e-18 -1.825995e+00 -9.420274e-19 2.163719e-19 -2.984862e-01
1.02           -1.811424e-17 -5.531738e-18 -2.117444e+00 -1.717331e-17 -5.747802e-18 -1.819191e+00 -9.409276e-19 2.160640e-19 -2.982531e-01
1.03           -1.814866e-17 -5.570882e-18 -2.118001e+00 -1.720867e-17 -5.785893e-18 -1.819978e+00 -9.399809e-19 2.150112e-19 -2.980237e-01
1.04           -1.816231e-17 -5.557311e-18 -2.127858e+00 -1.722303e-17 -5.770604e-18 -1.830055e+00 -9.392798e-19 2.132929e-19 -2.978024e-01
1.05           -1.817979e-17 -5.636629e-18 -2.122935e+00 -1.724123e-17 -5.847637e-18 -1.825364e+00 -9.385570e-19 2.110080e-19 -2.975712e-01
1.06           -1.815495e-17 -5.687163e-18 -2.119298e+00 -1.721707e-17 -5.895410e-18 -1.821964e+00 -9.378769e-19 2.082473e-19 -2.973346e-01
1.07           -1.813014e-17 -5.674291e-18 -2.126606e+00 -1.719283e-17 -5.879337e-18 -1.829506e+00 -9.373054e-19 2.050456e-19 -2.971002e-01
1.08           -1.808880e-17 -5.643018e-18 -2.136639e+00 -1.715193e-17 -5.844490e-18 -1.839769e+00 -9.368690e-19 2.014719e-19 -2.968696e-01
1.09           -1.804817e-17 -5.609159e-18 -2.148970e+00 -1.711169e-17 -5.806739e-18 -1.852333e+00 -9.364832e-19 1.975806e-19 -2.966369e-01
1.1            -1.800612e-17 -5.543128e-18 -2.168174e+00 -1.707013e-17 -5.736616e-18 -1.871762e+00 -9.359964e-19 1.934880e-19 -2.964113e-01
1.11           -1.794576e-17 -5.473007e-18 -2.188397e+00 -1.701033e-17 -5.662270e-18 -1.892202e+00 -9.354327e-19 1.892636e-19 -2.961952e-01
1.12           -1.785756e-17 -5.413082e-18 -2.225114e+00 -1.692297e-17 -5.598137e-18 -1.929117e+00 -9.345985e-19 1.850552e-19 -2.959968e-01
1.13           -1.779525e-17 -5.346292e-18 -2.247214e+00 -1.686159e-17 -5.527114e-18 -1.951407e+00 -9.336667e-19 1.808227e-19 -2.958071e-01
1.14           -1.776577e-17 -5.273777e-18 -2.269887e+00 -1.683308e-17 -5.450486e-18 -1.974261e+00 -9.326884e-19 1.767093e-19 -2.956257e-01
1.15           -1.771936e-17 -5.246318e-18 -2.277952e+00 -1.678771e-17 -5.419173e-18 -1.982510e+00 -9.316459e-19 1.728548e-19 -2.954426e-01
1.16           -1.764566e-17 -5.184992e-18 -2.292651e+00 -1.671510e-17 -5.354165e-18 -1.997389e+00 -9.305547e-19 1.691735e-19 -2.952617e-01
1.17           -1.758542e-17 -5.092182e-18 -2.321123e+00 -1.665601e-17 -5.257850e-18 -2.026032e+00 -9.294070e-19 1.656689e-19 -2.950906e-01
1.18           -1.752413e-17 -4.993169e-18 -2.346508e+00 -1.659591e-17 -5.155543e-18 -2.051581e+00 -9.282263e-19 1.623743e-19 -2.949269e-01
1.19           -1.747138e-17 -4.890299e-18 -2.366467e+00 -1.654433e-17 -5.049610e-18 -2.071700e+00 -9.270529e-19 1.593112e-19 -2.947676e-01
1.2            -1.741449e-17 -4.788554e-18 -2.389583e+00 -1.648856e-17 -4.945078e-18 -2.094969e+00 -9.259299e-19 1.565237e-19 -2.946140e-01
1.21           -1.734979e-17 -4.671739e-18 -2.415311e+00 -1.642491e-17 -4.825793e-18 -2.120843e+00 -9.248830e-19 1.540543e-19 -2.944676e-01
1.22           -1.724441e-17 -4.500220e-18 -2.457620e+00 -1.632042e-17 -4.652217e-18 -2.163282e+00 -9.239930e-19 1.519973e-19 -2.943380e-01
1.23           -1.717760e-17 -4.351381e-18 -2.480115e+00 -1.625445e-17 -4.501685e-18 -2.185901e+00 -9.231514e-19 1.503035e-19 -2.942144e-01
1.24           -1.713548e-17 -4.217663e-18 -2.496787e+00 -1.621310e-17 -4.366657e-18 -2.202693e+00 -9.223820e-19 1.489942e-19 -2.940938e-01
1.25           -1.703794e-17 -4.024094e-18 -2.529665e+00 -1.611615e-17 -4.172277e-18 -2.235679e+00 -9.217898e-19 1.481835e-19 -2.939859e-01
1.26           -1.697190e-17 -3.893006e-18 -2.544507e+00 -1.605069e-17 -4.040822e-18 -2.250627e+00 -9.212115e-19 1.478157e-19 -2.938804e-01
1.27           -1.695556e-17 -3.789227e-18 -2.551415e+00 -1.603498e-17 -3.937101e-18 -2.257640e+00 -9.205858e-19 1.478738e-19 -2.937742e-01
1.28           -1.690362e-17 -3.615032e-18 -2.575855e+00 -1.598364e-17 -3.763491e-18 -2.282177e+00 -9.199775e-19 1.484596e-19 -2.936785e-01
1.29           -1.686783e-17 -3.468209e-18 -2.605716e+00 -1.594851e-17 -3.617758e-18 -2.312118e+00 -9.193191e-19 1.495490e-19 -2.935977e-01
1.3            -1.681664e-17 -3.369696e-18 -2.621964e+00 -1.589796e-17 -3.520890e-18 -2.328439e+00 -9.186785e-19 1.511936e-19 -2.935248e-01
1.31           -1.677768e-17 -3.253771e-18 -2.631621e+00 -1.585995e-17 -3.406973e-18 -2.338160e+00 -9.177278e-19 1.532020e-19 -2.934606e-01
1.32           -1.668442e-17 -3.182406e-18 -2.625332e+00 -1.576793e-17 -3.338042e-18 -2.331956e+00 -9.164934e-19 1.556362e-19 -2.933761e-01
1.33           -1.673106e-17 -3.160792e-18 -2.646972e+00 -1.581634e-17 -3.319157e-18 -2.353679e+00 -9.147207e-19 1.583647e-19 -2.932932e-01
1.34           -1.682392e-17 -3.175016e-18 -2.676977e+00 -1.591152e-17 -3.336392e-18 -2.383763e+00 -9.123951e-19 1.613763e-19 -2.932132e-01
1.35           -1.683101e-17 -3.166673e-18 -2.684155e+00 -1.592139e-17 -3.331334e-18 -2.391037e+00 -9.096277e-19 1.646604e-19 -2.931176e-01
1.36           -1.680917e-17 -3.104081e-18 -2.681420e+00 -1.590274e-17 -3.272185e-18 -2.388407e+00 -9.064257e-19 1.681048e-19 -2.930126e-01
1.37           -1.679771e-17 -3.051840e-18 -2.675832e+00 -1.589493e-17 -3.223473e-18 -2.382934e+00 -9.027794e-19 1.716334e-19 -2.928980e-01
1.38           -1.678017e-17 -2.991185e-18 -2.673665e+00 -1.588145e-17 -3.166369e-18 -2.380889e+00 -8.987183e-19 1.751844e-19 -2.927761e-01
1.39           -1.677211e-17 -2.937961e-18 -2.670838e+00 -1.587788e-17 -3.116638e-18 -2.378191e+00 -8.942351e-19 1.786764e-19 -2.926469e-01
1.4            -1.676055e-17 -2.890554e-18 -2.672597e+00 -1.587118e-17 -3.072610e-18 -2.380085e+00 -8.893678e-19 1.820562e-19 -2.925126e-01
1.41           -1.675162e-17 -2.867102e-18 -2.662668e+00 -1.586749e-17 -3.052368e-18 -2.370302e+00 -8.841265e-19 1.852653e-19 -2.923660e-01
1.42           -1.673383e-17 -2.864022e-18 -2.656388e+00 -1.585542e-17 -3.052321e-18 -2.364180e+00 -8.784122e-19 1.882986e-19 -2.922083e-01
1.43           -1.672498e-17 -2.851653e-18 -2.659286e+00 -1.585273e-17 -3.042749e-18 -2.367241e+00 -8.722473e-19 1.910962e-19 -2.920446e-01
1.44           -1.673116e-17 -2.841318e-18 -2.656283e+00 -1.586536e-17 -3.034902e-18 -2.364412e+00 -8.658039e-19 1.935839e-19 -2.918716e-01
1.45           -1.668998e-17 -2.822980e-18 -2.645191e+00 -1.583073e-17 -3.018740e-18 -2.353507e+00 -8.592507e-19 1.957596e-19 -2.916843e-01
1.46           -1.667537e-17 -2.833472e-18 -2.635096e+00 -1.582275e-17 -3.031064e-18 -2.343613e+00 -8.526200e-19 1.975916e-19 -2.914837e-01
1.47           -1.664807e-17 -2.881694e-18 -2.632345e+00 -1.580232e-17 -3.080834e-18 -2.341072e+00 -8.457526e-19 1.991399e-19 -2.912729e-01
1.48           -1.663727e-17 -2.941738e-18 -2.620365e+00 -1.579846e-17 -3.142107e-18 -2.329318e+00 -8.388051e-19 2.003686e-19 -2.910468e-01
1.49           -1.665576e-17 -2.959438e-18 -2.600683e+00 -1.582371e-17 -3.160672e-18 -2.309881e+00 -8.320437e-19 2.012335e-19 -2.908021e-01
1.5            -1.667298e-17 -2.988323e-18 -2.580389e+00 -1.584740e-17 -3.190118e-18 -2.289851e+00 -8.255738e-19 2.017953e-19 -2.905387e-01
1.51           -1.668255e-17 -3.052414e-18 -2.560277e+00 -1.586316e-17 -3.254528e-18 -2.270020e+00 -8.193911e-19 2.021146e-19 -2.902570e-01
1.52           -1.669317e-17 -3.122509e-18 -2.540030e+00 -1.587967e-17 -3.324731e-18 -2.250073e+00 -8.135025e-19 2.022220e-19 -2.899576e-01
1.53           -1.669354e-17 -3.201933e-18 -2.525073e+00 -1.588560e-17 -3.404105e-18 -2.235429e+00 -8.079363e-19 2.021723e-19 -2.896435e-01
1.54           -1.669241e-17 -3.294570e-18 -2.505437e+00 -1.588971e-17 -3.496562e-18 -2.216125e+00 -8.027000e-19 2.019918e-19 -2.893127e-01
1.55           -1.673819e-17 -3.365299e-18 -2.475686e+00 -1.594041e-17 -3.566981e-18 -2.186726e+00 -7.977839e-19 2.016813e-19 -2.889599e-01
1.56           -1.673448e-17 -3.376050e-18 -2.479940e+00 -1.594114e-17 -3.577471e-18 -2.191335e+00 -7.933332e-19 2.014205e-19 -2.886042e-01
1.57           -1.675523e-17 -3.429640e-18 -2.469526e+00 -1.596611e-17 -3.630770e-18 -2.181288e+00 -7.891250e-19 2.011298e-19 -2.882378e-01
1.58           -1.684325e-17 -3.525031e-18 -2.453174e+00 -1.605814e-17 -3.725852e-18 -2.165316e+00 -7.851121e-19 2.008203e-19 -2.878579e-01
1.59           -1.693747e-17 -3.606947e-18 -2.445531e+00 -1.615609e-17 -3.807471e-18 -2.158061e+00 -7.813790e-19 2.005237e-19 -2.874699e-01
1.6            -1.700391e-17 -3.708581e-18 -2.445426e+00 -1.622596e-17 -3.908877e-18 -2.158348e+00 -7.779470e-19 2.002962e-19 -2.870781e-01
1.61           -1.701689e-17 -3.803077e-18 -2.427610e+00 -1.624199e-17 -4.003236e-18 -2.140938e+00 -7.748961e-19 2.001584e-19 -2.866724e-01
1.62           -1.702128e-17 -3.902390e-18 -2.404941e+00 -1.624905e-17 -4.102512e-18 -2.118691e+00 -7.722276e-19 2.001221e-19 -2.862502e-01
1.63           -1.702334e-17 -3.999473e-18 -2.383373e+00 -1.625340e-17 -4.199671e-18 -2.097561e+00 -7.699468e-19 2.001985e-19 -2.858124e-01
1.64           -1.702013e-17 -4.094367e-18 -2.362521e+00 -1.625207e-17 -4.294761e-18 -2.077162e+00 -7.680550e-19 2.003944e-19 -2.853597e-01
1.65           -1.702233e-17 -4.189393e-18 -2.344317e+00 -1.625577e-17 -4.390097e-18 -2.059424e+00 -7.665551e-19 2.007040e-19 -2.848938e-01
1.66           -1.704733e-17 -4.313779e-18 -2.327426e+00 -1.628189e-17 -4.514888e-18 -2.043010e+00 -7.654379e-19 2.011087e-19 -2.844158e-01
1.67           -1.698194e-17 -4.299096e-18 -2.300487e+00 -1.621714e-17 -4.500773e-18 -2.016567e+00 -7.647994e-19 2.016767e-19 -2.839205e-01
1.68           -1.698700e-17 -4.387549e-18 -2.281171e+00 -1.622242e-17 -4.589900e-18 -1.997757e+00 -7.645790e-19 2.023510e-19 -2.834133e-01
1.69           -1.697819e-17 -4.467214e-18 -2.267270e+00 -1.621339e-17 -4.670354e-18 -1.984372e+00 -7.648051e-19 2.031400e-19 -2.828978e-01
1.7            -1.694995e-17 -4.510874e-18 -2.273374e+00 -1.618446e-17 -4.714973e-18 -1.990988e+00 -7.654838e-19 2.040996e-19 -2.823862e-01
1.71           -1.694591e-17 -4.586369e-18 -2.261258e+00 -1.617935e-17 -4.791530e-18 -1.979388e+00 -7.665608e-19 2.051610e-19 -2.818698e-01
1.72           -1.694686e-17 -4.674149e-18 -2.244924e+00 -1.617878e-17 -4.880488e-18 -1.963576e+00 -7.680896e-19 2.063391e-19 -2.813475e-01
1.73           -1.692672e-17 -4.785242e-18 -2.225128e+00 -1.615662e-17 -4.992898e-18 -1.944310e+00 -7.700976e-19 2.076561e-19 -2.808183e-01
1.74           -1.693072e-17 -4.886169e-18 -2.207682e+00 -1.615820e-17 -5.095273e-18 -1.927397e+00 -7.725210e-19 2.091048e-19 -2.802853e-01
1.75           -1.690975e-17 -4.962675e-18 -2.185298e+00 -1.613430e-17 -5.173400e-18 -1.905550e+00 -7.754487e-19 2.107251e-19 -2.797477e-01
1.76           -1.690074e-17 -5.076887e-18 -2.160649e+00 -1.612197e-17 -5.289387e-18 -1.881444e+00 -7.787705e-19 2.124998e-19 -2.792048e-01
1.77           -1.696138e-17 -5.207984e-18 -2.129566e+00 -1.617896e-17 -5.422381e-18 -1.850911e+00 -7.824162e-19 2.143969e-19 -2.786550e-01
1.78           -1.693696e-17 -5.225272e-18 -2.126078e+00 -1.615045e-17 -5.441834e-18 -1.847962e+00 -7.865104e-19 2.165616e-19 -2.781159e-01
1.79           -1.690391e-17 -5.237178e-18 -2.127183e+00 -1.611298e-17 -5.456177e-18 -1.849592e+00 -7.909291e-19 2.189998e-19 -2.775910e-01
1.8            -1.691118e-17 -5.282734e-18 -2.116044e+00 -1.611560e-17 -5.504411e-18 -1.838969e+00 -7.955846e-19 2.216771e-19 -2.770750e-01
1.81           -1.695075e-17 -5.301824e-18 -2.102004e+00 -1.615026e-17 -5.526445e-18 -1.825438e+00 -8.004965e-19 2.246219e-19 -2.765667e-01
1.82           -1.698181e-17 -5.382467e-18 -2.075227e+00 -1.617618e-17 -5.610306e-18 -1.799167e+00 -8.056302e-19 2.278390e-19 -2.760607e-01
1.83           -1.699335e-17 -5.468689e-18 -2.053305e+00 -1.618235e-17 -5.700070e-18 -1.777744e+00 -8.109983e-19 2.313816e-19 -2.755609e-01
1.84           -1.699649e-17 -5.568891e-18 -2.027996e+00 -1.617993e-17 -5.804145e-18 -1.752929e+00 -8.165644e-19 2.352544e-19 -2.750671e-01
1.85           -1.699912e-17 -5.627080e-18 -2.015415e+00 -1.617683e-17 -5.866572e-18 -1.740827e+00 -8.222919e-19 2.394919e-19 -2.745877e-01
1.86           -1.698748e-17 -5.691710e-18 -2.013781e+00 -1.615939e-17 -5.935803e-18 -1.739652e+00 -8.280913e-19 2.440933e-19 -2.741297e-01
1.87           -1.698345e-17 -5.772581e-18 -2.004648e+00 -1.614959e-17 -6.021586e-18 -1.730957e+00 -8.338671e-19 2.490055e-19 -2.736904e-01
1.88           -1.703058e-17 -5.773548e-18 -1.992776e+00 -1.619099e-17 -6.027756e-18 -1.719506e+00 -8.395883e-19 2.542078e-19 -2.732696e-01
1.89           -1.700607e-17 -5.954981e-18 -1.962820e+00 -1.616079e-17 -6.214717e-18 -1.689962e+00 -8.452840e-19 2.597358e-19 -2.728583e-01
1.9            -1.701724e-17 -6.047428e-18 -1.940205e+00 -1.616624e-17 -6.312974e-18 -1.667742e+00 -8.510011e-19 2.655468e-19 -2.724629e-01
1.91           -1.699144e-17 -5.952710e-18 -1.997360e+00 -1.613488e-17 -6.224471e-18 -1.725235e+00 -8.565602e-19 2.717604e-19 -2.721258e-01
1.92           -1.703782e-17 -6.001445e-18 -1.973630e+00 -1.617610e-17 -6.279511e-18 -1.701825e+00 -8.617161e-19 2.780662e-19 -2.718050e-01
1.93           -1.703665e-17 -6.041516e-18 -1.965063e+00 -1.616982e-17 -6.326096e-18 -1.693553e+00 -8.668335e-19 2.845803e-19 -2.715093e-01
1.94           -1.705829e-17 -6.103523e-18 -1.947844e+00 -1.618642e-17 -6.394751e-18 -1.676608e+00 -8.718640e-19 2.912277e-19 -2.712360e-01
1.95           -1.707179e-17 -6.155555e-18 -1.935269e+00 -1.619492e-17 -6.453565e-18 -1.664280e+00 -8.768665e-19 2.980094e-19 -2.709894e-01
1.96           -1.716105e-17 -6.261614e-18 -1.918537e+00 -1.627933e-17 -6.566524e-18 -1.647771e+00 -8.817273e-19 3.049101e-19 -2.707666e-01
1.97           -1.708055e-17 -6.317376e-18 -1.898766e+00 -1.619369e-17 -6.629254e-18 -1.628192e+00 -8.868582e-19 3.118782e-19 -2.705733e-01
1.98           -1.706778e-17 -6.361145e-18 -1.885655e+00 -1.617586e-17 -6.680025e-18 -1.615244e+00 -8.919115e-19 3.188798e-19 -2.704114e-01
1.99           -1.709430e-17 -6.378397e-18 -1.867045e+00 -1.619747e-17 -6.704321e-18 -1.596766e+00 -8.968251e-19 3.259242e-19 -2.702784e-01
2              -1.708976e-17 -6.365231e-18 -1.848776e+00 -1.618807e-17 -6.698281e-18 -1.578601e+00 -9.016969e-19 3.330493e-19 -2.701745e-01
2.01           -1.708178e-17 -6.390938e-18 -1.833972e+00 -1.617520e-17 -6.731184e-18 -1.563870e+00 -9.065864e-19 3.402454e-19 -2.701024e-01
2.02           -1.707089e-17 -6.415643e-18 -1.821274e+00 -1.615940e-17 -6.763140e-18 -1.551210e+00 -9.114849e-19 3.474967e-19 -2.700644e-01
2.03           -1.706245e-17 -6.413859e-18 -1.814463e+00 -1.614621e-17 -6.768668e-18 -1.544399e+00 -9.162377e-19 3.548093e-19 -2.700646e-01
2.04           -1.707063e-17 -6.380275e-18 -1.808278e+00 -1.614993e-17 -6.742427e-18 -1.538173e+00 -9.207006e-19 3.621521e-19 -2.701046e-01
2.05           -1.703547e-17 -6.390041e-18 -1.790125e+00 -1.611006e-17 -6.759503e-18 -1.519944e+00 -9.254128e-19 3.694612e-19 -2.701808e-01
2.06           -1.703294e-17 -6.409538e-18 -1.788689e+00 -1.610310e-17 -6.786381e-18 -1.518408e+00 -9.298435e-19 3.768428e-19 -2.702815e-01
2.07           -1.698650e-17 -6.493520e-18 -1.795088e+00 -1.605221e-17 -6.877880e-18 -1.524685e+00 -9.342877e-19 3.843603e-19 -2.704024e-01
2.08           -1.692657e-17 -6.564482e-18 -1.803277e+00 -1.598782e-17 -6.956525e-18 -1.532739e+00 -9.387528e-19 3.920426e-19 -2.705385e-01
2.09           -1.692427e-17 -6.603832e-18 -1.808391e+00 -1.598163e-17 -7.003660e-18 -1.537715e+00 -9.426344e-19 3.998283e-19 -2.706758e-01
2.1            -1.686140e-17 -6.568761e-18 -1.811041e+00 -1.591511e-17 -6.976390e-18 -1.540201e+00 -9.462960e-19 4.076284e-19 -2.708396e-01
2.11           -1.679851e-17 -6.516839e-18 -1.815079e+00 -1.584875e-17 -6.932273e-18 -1.544047e+00 -9.497544e-19 4.154347e-19 -2.710316e-01
2.12           -1.673051e-17 -6.458489e-18 -1.820501e+00 -1.577754e-17 -6.881708e-18 -1.549249e+00 -9.529688e-19 4.232186e-19 -2.712521e-01