# Moment      
# CofR        : (2.000000e-01 2.000000e-01 5.000000e-02)
#
# Time        	total_x total_y total_z	pressure_x pressure_y pressure_z	viscous_x viscous_y viscous_z
0.01           1.658767e-04 3.820731e-02 5.216742e-07 1.682718e-04 3.671087e-02 -7.520422e-14 -2.395060e-06 1.496436e-03 5.216743e-07
0.02           -1.321481e-04 1.767192e-03 -9.047125e-07 -1.291910e-04 5.589889e-04 -3.488799e-15 -2.957151e-06 1.208203e-03 -9.047125e-07
0.03           2.403326e-06 2.247286e-03 -1.068681e-06 -1.449678e-06 1.241616e-03 -3.572766e-15 3.853005e-06 1.005670e-03 -1.068681e-06
0.04           6.308238e-06 1.934245e-03 -1.056705e-06 -8.080366e-09 1.061418e-03 -2.029950e-15 6.316318e-06 8.728268e-04 -1.056705e-06
0.05           1.138069e-05 1.738245e-03 -9.856006e-07 4.056867e-06 9.576869e-04 -1.405087e-15 7.323824e-06 7.805582e-04 -9.856006e-07
0.06           1.416001e-05 1.597354e-03 -9.004612e-07 6.472743e-06 8.839459e-04 -1.050650e-15 7.687264e-06 7.134085e-04 -9.004612e-07
0.07           1.556781e-05 1.491817e-03 -8.176166e-07 7.855536e-06 8.291409e-04 -8.231860e-16 7.712271e-06 6.626758e-04 -8.176166e-07
0.08           1.656098e-05 1.410337e-03 -7.424086e-07 8.996358e-06 7.871870e-04 -6.600856e-16 7.564618e-06 6.231504e-04 -7.424086e-07
0.09           1.689044e-05 1.346288e-03 -6.760884e-07 9.570221e-06 7.547184e-04 -5.260752e-16 7.320215e-06 5.915701e-04 -6.760884e-07
0.1            1.684005e-05 1.294363e-03 -6.183852e-07 9.816011e-06 7.285829e-04 -4.064017e-16 7.024044e-06 5.657799e-04 -6.183852e-07
0.11           1.692737e-05 1.251865e-03 -5.683810e-07 1.021191e-05 7.075266e-04 -2.898907e-16 6.715467e-06 5.443388e-04 -5.683810e-07
0.12           1.660176e-05 1.216759e-03 -5.251074e-07 1.020702e-05 6.905089e-04 -1.902385e-16 6.394748e-06 5.262502e-04 -5.251074e-07
0.13           1.628289e-05 1.187190e-03 -4.875747e-07 1.019559e-05 6.764026e-04 -9.643555e-17 6.087306e-06 5.107878e-04 -4.875747e-07
0.14           1.599963e-05 1.162146e-03 -4.549020e-07 1.019860e-05 6.647180e-04 -5.543831e-18 5.801026e-06 4.974281e-04 -4.549020e-07
0.15           1.562747e-05 1.140693e-03 -4.263233e-07 1.009524e-05 6.549146e-04 8.235363e-17 5.532232e-06 4.857785e-04 -4.263233e-07
0.16           1.529091e-05 1.122397e-03 -4.012057e-07 1.000256e-05 6.468499e-04 1.694981e-16 5.288354e-06 4.755473e-04 -4.012057e-07
0.17           1.501734e-05 1.106658e-03 -3.789987e-07 9.948954e-06 6.401526e-04 2.544589e-16 5.068389e-06 4.665059e-04 -3.789987e-07
0.18           1.474373e-05 1.093142e-03 -3.592750e-07 9.874220e-06 6.346646e-04 3.387971e-16 4.869506e-06 4.584771e-04 -3.592750e-07
0.19           1.442980e-05 1.081396e-03 -3.416597e-07 9.741975e-06 6.300825e-04 4.199793e-16 4.687829e-06 4.513133e-04 -3.416597e-07
0.2            1.419648e-05 1.071272e-03 -3.258185e-07 9.671107e-06 6.263722e-04 5.026327e-16 4.525376e-06 4.448999e-04 -3.258185e-07
0.21           1.398247e-05 1.062561e-03 -3.115474e-07 9.600721e-06 6.234181e-04 5.838640e-16 4.381753e-06 4.391427e-04 -3.115474e-07
0.22           1.364520e-05 1.055214e-03 -2.986311e-07 9.399330e-06 6.212449e-04 6.610254e-16 4.245868e-06 4.339693e-04 -2.986311e-07
0.23           1.354037e-05 1.048791e-03 -2.867732e-07 9.417605e-06 6.194846e-04 7.423354e-16 4.122764e-06 4.293062e-04 -2.867732e-07
0.24           1.354384e-05 1.043164e-03 -2.760004e-07 9.525383e-06 6.180646e-04 8.236879e-16 4.018459e-06 4.250994e-04 -2.760004e-07
0.25           1.340233e-05 1.038616e-03 -2.661435e-07 9.477215e-06 6.173167e-04 9.092602e-16 3.925111e-06 4.212996e-04 -2.661435e-07
0.26           1.321716e-05 1.034801e-03 -2.570551e-07 9.377934e-06 6.169404e-04 9.943565e-16 3.839228e-06 4.178607e-04 -2.570551e-07
0.27           1.308486e-05 1.031644e-03 -2.487038e-07 9.320289e-06 6.168847e-04 1.079344e-15 3.764568e-06 4.147594e-04 -2.487038e-07
0.28           1.300928e-05 1.029152e-03 -2.409924e-07 9.309904e-06 6.171820e-04 1.165921e-15 3.699376e-06 4.119701e-04 -2.409924e-07
0.29           1.283929e-05 1.027300e-03 -2.338297e-07 9.200954e-06 6.178380e-04 1.259863e-15 3.638334e-06 4.094616e-04 -2.338297e-07
0.3            1.275670e-05 1.025786e-03 -2.271774e-07 9.163197e-06 6.186010e-04 1.335967e-15 3.593498e-06 4.071847e-04 -2.271774e-07
0.31           1.269353e-05 1.024760e-03 -2.209589e-07 9.130030e-06 6.196388e-04 1.402100e-15 3.563503e-06 4.051207e-04 -2.209589e-07
0.32           1.266059e-05 1.024160e-03 -2.151456e-07 9.120646e-06 6.208778e-04 1.474569e-15 3.539947e-06 4.032825e-04 -2.151456e-07
0.33           1.259689e-05 1.023909e-03 -2.097495e-07 9.071063e-06 6.222428e-04 1.537907e-15 3.525827e-06 4.016661e-04 -2.097495e-07
0.34           1.258900e-05 1.024059e-03 -2.046894e-07 9.077964e-06 6.238341e-04 1.614603e-15 3.511038e-06 4.002253e-04 -2.046894e-07
0.35           1.249398e-05 1.024541e-03 -2.000337e-07 8.998656e-06 6.255999e-04 1.689566e-15 3.495327e-06 3.989410e-04 -2.000337e-07
0.36           1.261100e-05 1.025282e-03 -1.956969e-07 9.127834e-06 6.274730e-04 1.763739e-15 3.483166e-06 3.978094e-04 -1.956970e-07
0.37           1.253814e-05 1.026228e-03 -1.915436e-07 9.061962e-06 6.294043e-04 1.833406e-15 3.476178e-06 3.968236e-04 -1.915436e-07
0.38           1.244963e-05 1.027363e-03 -1.875458e-07 8.973944e-06 6.313853e-04 1.899753e-15 3.475689e-06 3.959780e-04 -1.875458e-07
0.39           1.227500e-05 1.028751e-03 -1.838522e-07 8.807386e-06 6.335026e-04 1.965871e-15 3.467615e-06 3.952486e-04 -1.838522e-07
0.4            1.233997e-05 1.030271e-03 -1.804290e-07 8.883259e-06 6.356579e-04 2.025774e-15 3.456715e-06 3.946136e-04 -1.804290e-07
0.41           1.229555e-05 1.032025e-03 -1.772272e-07 8.853502e-06 6.379552e-04 2.079683e-15 3.442050e-06 3.940703e-04 -1.772272e-07
0.42           1.221829e-05 1.033990e-03 -1.742423e-07 8.795899e-06 6.403744e-04 2.137400e-15 3.422389e-06 3.936157e-04 -1.742423e-07
0.43           1.215966e-05 1.035948e-03 -1.714936e-07 8.754194e-06 6.426998e-04 2.187705e-15 3.405464e-06 3.932485e-04 -1.714936e-07
0.44           1.207092e-05 1.037981e-03 -1.688786e-07 8.680560e-06 6.450163e-04 2.232238e-15 3.390362e-06 3.929650e-04 -1.688786e-07
0.45           1.202099e-05 1.040179e-03 -1.664270e-07 8.642141e-06 6.474198e-04 2.271931e-15 3.378853e-06 3.927593e-04 -1.664270e-07
0.46           1.200995e-05 1.042404e-03 -1.641075e-07 8.638235e-06 6.497824e-04 2.308886e-15 3.371712e-06 3.926220e-04 -1.641075e-07
0.47           1.188597e-05 1.044731e-03 -1.619292e-07 8.524323e-06 6.521809e-04 2.342129e-15 3.361644e-06 3.925498e-04 -1.619292e-07
0.48           1.186351e-05 1.047057e-03 -1.598793e-07 8.511475e-06 6.545229e-04 2.371786e-15 3.352039e-06 3.925341e-04 -1.598793e-07
0.49           1.182143e-05 1.049391e-03 -1.579255e-07 8.477203e-06 6.568270e-04 2.401168e-15 3.344228e-06 3.925644e-04 -1.579255e-07
0.5            1.175772e-05 1.051789e-03 -1.560044e-07 8.423606e-06 6.591489e-04 2.422187e-15 3.334117e-06 3.926402e-04 -1.560044e-07
0.51           1.163502e-05 1.054319e-03 -1.540941e-07 8.316893e-06 6.615577e-04 2.434723e-15 3.318125e-06 3.927616e-04 -1.540941e-07
0.52           1.163372e-05 1.056739e-03 -1.524009e-07 8.328441e-06 6.638157e-04 2.452838e-15 3.305279e-06 3.929237e-04 -1.524009e-07
0.53           1.153898e-05 1.059154e-03 -1.512197e-07 8.241469e-06 6.660336e-04 2.471026e-15 3.297516e-06 3.931204e-04 -1.512197e-07
0.54           1.150565e-05 1.061550e-03 -1.501807e-07 8.214187e-06 6.682078e-04 2.481188e-15 3.291461e-06 3.933419e-04 -1.501808e-07
0.55           1.141776e-05 1.063919e-03 -1.492167e-07 8.134446e-06 6.703355e-04 2.487117e-15 3.283314e-06 3.935839e-04 -1.492167e-07
0.56           1.131907e-05 1.066252e-03 -1.483387e-07 8.046185e-06 6.724077e-04 2.490312e-15 3.272888e-06 3.938438e-04 -1.483387e-07
0.57           1.116452e-05 1.068660e-03 -1.477454e-07 7.902751e-06 6.745334e-04 2.498289e-15 3.261765e-06 3.941271e-04 -1.477454e-07
0.58           1.105263e-05 1.070944e-03 -1.473336e-07 7.801509e-06 6.765187e-04 2.504639e-15 3.251122e-06 3.944252e-04 -1.473336e-07
0.59           1.095942e-05 1.073152e-03 -1.468702e-07 7.718282e-06 6.784192e-04 2.504248e-15 3.241138e-06 3.947324e-04 -1.468702e-07
0.6            1.087149e-05 1.075264e-03 -1.464551e-07 7.638372e-06 6.802171e-04 2.500404e-15 3.233117e-06 3.950467e-04 -1.464551e-07
0.61           1.082150e-05 1.077294e-03 -1.460648e-07 7.593912e-06 6.819284e-04 2.496640e-15 3.227584e-06 3.953652e-04 -1.460648e-07
0.62           1.078246e-05 1.079335e-03 -1.457034e-07 7.557121e-06 6.836458e-04 2.492902e-15 3.225343e-06 3.956894e-04 -1.457034e-07
0.63           1.069333e-05 1.081258e-03 -1.453480e-07 7.469581e-06 6.852426e-04 2.487603e-15 3.223745e-06 3.960156e-04 -1.453480e-07
0.64           1.062722e-05 1.083196e-03 -1.449930e-07 7.411024e-06 6.868552e-04 2.478487e-15 3.216198e-06 3.963403e-04 -1.449930e-07
0.65           1.054721e-05 1.085081e-03 -1.447551e-07 7.345716e-06 6.884196e-04 2.466528e-15 3.201491e-06 3.966614e-04 -1.447551e-07
0.66           1.045138e-05 1.086859e-03 -1.446301e-07 7.265063e-06 6.898830e-04 2.456905e-15 3.186322e-06 3.969762e-04 -1.446301e-07
0.67           1.037426e-05 1.088589e-03 -1.445085e-07 7.204134e-06 6.913034e-04 2.446555e-15 3.170130e-06 3.972858e-04 -1.445085e-07
0.68           1.027153e-05 1.090234e-03 -1.444134e-07 7.118030e-06 6.926455e-04 2.435630e-15 3.153495e-06 3.975881e-04 -1.444134e-07
0.69           1.024196e-05 1.091821e-03 -1.444026e-07 7.102493e-06 6.939347e-04 2.422856e-15 3.139468e-06 3.978860e-04 -1.444026e-07
0.7            1.017464e-05 1.093316e-03 -1.444260e-07 7.049154e-06 6.951390e-04 2.410965e-15 3.125484e-06 3.981773e-04 -1.444260e-07
0.71           1.011921e-05 1.094744e-03 -1.444939e-07 7.007413e-06 6.962828e-04 2.398919e-15 3.111792e-06 3.984609e-04 -1.444939e-07
0.72           1.001427e-05 1.096090e-03 -1.444733e-07 6.921556e-06 6.973582e-04 2.388667e-15 3.092710e-06 3.987315e-04 -1.444733e-07
0.73           9.961305e-06 1.097368e-03 -1.444709e-07 6.891844e-06 6.983805e-04 2.373621e-15 3.069461e-06 3.989879e-04 -1.444709e-07
0.74           9.827789e-06 1.098581e-03 -1.444255e-07 6.784081e-06 6.993458e-04 2.363622e-15 3.043708e-06 3.992351e-04 -1.444255e-07
0.75           9.765496e-06 1.099734e-03 -1.444790e-07 6.744686e-06 7.002586e-04 2.352320e-15 3.020809e-06 3.994750e-04 -1.444790e-07
0.76           9.734314e-06 1.100803e-03 -1.445721e-07 6.733484e-06 7.010970e-04 2.341794e-15 3.000830e-06 3.997058e-04 -1.445721e-07
0.77           9.681995e-06 1.101827e-03 -1.446930e-07 6.700044e-06 7.018996e-04 2.331970e-15 2.981951e-06 3.999277e-04 -1.446930e-07
0.78           9.625798e-06 1.102783e-03 -1.448415e-07 6.661951e-06 7.026421e-04 2.323073e-15 2.963847e-06 4.001404e-04 -1.448415e-07
0.79           9.566013e-06 1.103693e-03 -1.450077e-07 6.619819e-06 7.033484e-04 2.315094e-15 2.946194e-06 4.003441e-04 -1.450077e-07
0.8            9.492259e-06 1.104528e-03 -1.451911e-07 6.563932e-06 7.039901e-04 2.306037e-15 2.928327e-06 4.005381e-04 -1.451911e-07
0.81           9.483040e-06 1.105314e-03 -1.453819e-07 6.570293e-06 7.045908e-04 2.297787e-15 2.912748e-06 4.007228e-04 -1.453819e-07
0.82           9.459200e-06 1.106047e-03 -1.455898e-07 6.560626e-06 7.051493e-04 2.290170e-15 2.898574e-06 4.008979e-04 -1.455898e-07
0.83           9.430531e-06 1.106739e-03 -1.458061e-07 6.545372e-06 7.056747e-04 2.283245e-15 2.885159e-06 4.010638e-04 -1.458061e-07
0.84           9.496990e-06 1.107382e-03 -1.460216e-07 6.620939e-06 7.061606e-04 2.276666e-15 2.876051e-06 4.012214e-04 -1.460216e-07
0.85           9.456067e-06 1.107977e-03 -1.462493e-07 6.589876e-06 7.066070e-04 2.270264e-15 2.866191e-06 4.013695e-04 -1.462493e-07
0.86           9.448791e-06 1.108457e-03 -1.464888e-07 6.591532e-06 7.069503e-04 2.265151e-15 2.857259e-06 4.015065e-04 -1.464888e-07
0.87           9.443098e-06 1.108879e-03 -1.467305e-07 6.594130e-06 7.072462e-04 2.260143e-15 2.848968e-06 4.016326e-04 -1.467305e-07
0.88           9.426095e-06 1.109318e-03 -1.469659e-07 6.585314e-06 7.075670e-04 2.255200e-15 2.840781e-06 4.017506e-04 -1.469659e-07
0.89           9.427961e-06 1.109766e-03 -1.471908e-07 6.594446e-06 7.079031e-04 2.250954e-15 2.833515e-06 4.018627e-04 -1.471908e-07
0.9            9.439405e-06 1.110155e-03 -1.474105e-07 6.611999e-06 7.081875e-04 2.247039e-15 2.827406e-06 4.019674e-04 -1.474105e-07
0.91           9.451282e-06 1.110491e-03 -1.476276e-07 6.629033e-06 7.084269e-04 2.243390e-15 2.822249e-06 4.020642e-04 -1.476276e-07
0.92           9.454060e-06 1.110790e-03 -1.478425e-07 6.636507e-06 7.086367e-04 2.240152e-15 2.817553e-06 4.021534e-04 -1.478426e-07
0.93           9.496709e-06 1.111067e-03 -1.480511e-07 6.681897e-06 7.088309e-04 2.237321e-15 2.814812e-06 4.022360e-04 -1.480511e-07
0.94           9.517040e-06 1.111316e-03 -1.482536e-07 6.704270e-06 7.090044e-04 2.234805e-15 2.812770e-06 4.023120e-04 -1.482536e-07
0.95           9.531036e-06 1.111534e-03 -1.484499e-07 6.719984e-06 7.091526e-04 2.232500e-15 2.811052e-06 4.023815e-04 -1.484499e-07
0.96           9.572256e-06 1.111730e-03 -1.486405e-07 6.761482e-06 7.092849e-04 2.230485e-15 2.810774e-06 4.024450e-04 -1.486405e-07
0.97           9.625074e-06 1.111892e-03 -1.488226e-07 6.813024e-06 7.093897e-04 2.228724e-15 2.812050e-06 4.025025e-04 -1.488226e-07
0.98           9.650856e-06 1.112042e-03 -1.489985e-07 6.837257e-06 7.094879e-04 2.227138e-15 2.813599e-06 4.025546e-04 -1.489985e-07
0.99           9.664840e-06 1.112173e-03 -1.491668e-07 6.849937e-06 7.095712e-04 2.225779e-15 2.814903e-06 4.026016e-04 -1.491668e-07
1              9.720942e-06 1.112285e-03 -1.493261e-07 6.903167e-06 7.096408e-04 2.224707e-15 2.817775e-06 4.026437e-04 -1.493261e-07
1.01           9.787720e-06 1.112390e-03 -1.494769e-07 6.965355e-06 7.097084e-04 2.223910e-15 2.822365e-06 4.026819e-04 -1.494769e-07
1.02           9.851118e-06 1.112464e-03 -1.496220e-07 7.022949e-06 7.097486e-04 2.223298e-15 2.828170e-06 4.027153e-04 -1.496220e-07
1.03           9.891853e-06 1.112524e-03 -1.497603e-07 7.057778e-06 7.097799e-04 2.222757e-15 2.834076e-06 4.027445e-04 -1.497603e-07
1.04           9.950781e-06 1.112587e-03 -1.498901e-07 7.109982e-06 7.098172e-04 2.222341e-15 2.840799e-06 4.027703e-04 -1.498901e-07
1.05           9.995538e-06 1.112623e-03 -1.500125e-07 7.147798e-06 7.098310e-04 2.222127e-15 2.847740e-06 4.027925e-04 -1.500125e-07
1.06           1.006178e-05 1.112666e-03 -1.501268e-07 7.206053e-06 7.098542e-04 2.221976e-15 2.855724e-06 4.028118e-04 -1.501268e-07
1.07           1.012220e-05 1.112686e-03 -1.502358e-07 7.257803e-06 7.098578e-04 2.221988e-15 2.864392e-06 4.028279e-04 -1.502358e-07
1.08           1.018315e-05 1.112702e-03 -1.503391e-07 7.309511e-06 7.098610e-04 2.222070e-15 2.873637e-06 4.028412e-04 -1.503391e-07
1.09           1.023254e-05 1.112695e-03 -1.504377e-07 7.349568e-06 7.098437e-04 2.222293e-15 2.882973e-06 4.028515e-04 -1.504377e-07
1.1            1.028743e-05 1.112689e-03 -1.505298e-07 7.394841e-06 7.098295e-04 2.222581e-15 2.892592e-06 4.028591e-04 -1.505298e-07
1.11           1.036852e-05 1.112657e-03 -1.506151e-07 7.465037e-06 7.097931e-04 2.223056e-15 2.903484e-06 4.028637e-04 -1.506151e-07
1.12           1.045739e-05 1.112616e-03 -1.506944e-07 7.541626e-06 7.097501e-04 2.223603e-15 2.915759e-06 4.028655e-04 -1.506944e-07
1.13           1.052252e-05 1.112590e-03 -1.507689e-07 7.594297e-06 7.097241e-04 2.224094e-15 2.928225e-06 4.028655e-04 -1.507689e-07
1.14           1.059145e-05 1.112554e-03 -1.508390e-07 7.650433e-06 7.096899e-04 2.224674e-15 2.941022e-06 4.028637e-04 -1.508390e-07
1.15           1.066335e-05 1.112519e-03 -1.509049e-07 7.709082e-06 7.096591e-04 2.225315e-15 2.954266e-06 4.028603e-04 -1.509049e-07
1.16           1.072850e-05 1.112471e-03 -1.509682e-07 7.760825e-06 7.096154e-04 2.225981e-15 2.967679e-06 4.028551e-04 -1.509682e-07
1.17           1.079795e-05 1.112423e-03 -1.510285e-07 7.816532e-06 7.095741e-04 2.226712e-15 2.981419e-06 4.028485e-04 -1.510285e-07
1.18           1.086617e-05 1.112373e-03 -1.510860e-07 7.870749e-06 7.095323e-04 2.227426e-15 2.995426e-06 4.028406e-04 -1.510860e-07
1.19           1.093447e-05 1.112317e-03 -1.511411e-07 7.924777e-06 7.094860e-04 2.228207e-15 3.009689e-06 4.028313e-04 -1.511411e-07
1.2            1.100154e-05 1.112259e-03 -1.511942e-07 7.977388e-06 7.094380e-04 2.228999e-15 3.024150e-06 4.028207e-04 -1.511943e-07
1.21           1.106733e-05 1.112194e-03 -1.512458e-07 8.028577e-06 7.093854e-04 2.229806e-15 3.038749e-06 4.028089e-04 -1.512458e-07
1.22           1.113602e-05 1.112137e-03 -1.512955e-07 8.082394e-06 7.093407e-04 2.230638e-15 3.053621e-06 4.027964e-04 -1.512955e-07
1.23           1.120207e-05 1.112081e-03 -1.513444e-07 8.133437e-06 7.092974e-04 2.231459e-15 3.068637e-06 4.027832e-04 -1.513444e-07
1.24           1.126809e-05 1.112020e-03 -1.513931e-07 8.184285e-06 7.092504e-04 2.232308e-15 3.083805e-06 4.027693e-04 -1.513931e-07
1.25           1.133034e-05 1.111958e-03 -1.514418e-07 8.231354e-06 7.092029e-04 2.233131e-15 3.098981e-06 4.027546e-04 -1.514418e-07
1.26           1.139873e-05 1.111880e-03 -1.514910e-07 8.284300e-06 7.091414e-04 2.234010e-15 3.114427e-06 4.027388e-04 -1.514910e-07
1.27           1.146112e-05 1.111810e-03 -1.515399e-07 8.331244e-06 7.090872e-04 2.234874e-15 3.129879e-06 4.027223e-04 -1.515399e-07
1.28           1.152814e-05 1.111732e-03 -1.515891e-07 8.382600e-06 7.090271e-04 2.235731e-15 3.145538e-06 4.027050e-04 -1.515891e-07
1.29           1.158427e-05 1.111664e-03 -1.516387e-07 8.423301e-06 7.089764e-04 2.236554e-15 3.160972e-06 4.026873e-04 -1.516387e-07
1.3            1.164306e-05 1.111593e-03 -1.516893e-07 8.466705e-06 7.089234e-04 2.237401e-15 3.176352e-06 4.026691e-04 -1.516893e-07
1.31           1.169870e-05 1.111520e-03 -1.517410e-07 8.507086e-06 7.088698e-04 2.238253e-15 3.191615e-06 4.026506e-04 -1.517410e-07
1.32           1.175199e-05 1.111446e-03 -1.517942e-07 8.545273e-06 7.088149e-04 2.239094e-15 3.206718e-06 4.026316e-04 -1.517942e-07
1.33           1.180772e-05 1.111379e-03 -1.518486e-07 8.585910e-06 7.087667e-04 2.239902e-15 3.221813e-06 4.026125e-04 -1.518486e-07
1.34           1.185996e-05 1.111308e-03 -1.519053e-07 8.623170e-06 7.087151e-04 2.240704e-15 3.236786e-06 4.025931e-04 -1.519053e-07
1.35           1.190966e-05 1.111239e-03 -1.519639e-07 8.658072e-06 7.086656e-04 2.241518e-15 3.251585e-06 4.025735e-04 -1.519640e-07
1.36           1.195278e-05 1.111162e-03 -1.520253e-07 8.686769e-06 7.086089e-04 2.242270e-15 3.266010e-06 4.025535e-04 -1.520253e-07
1.37           1.200531e-05 1.111096e-03 -1.520880e-07 8.724778e-06 7.085622e-04 2.243081e-15 3.280530e-06 4.025335e-04 -1.520880e-07
1.38           1.205537e-05 1.111030e-03 -1.521530e-07 8.760343e-06 7.085164e-04 2.243864e-15 3.295030e-06 4.025136e-04 -1.521530e-07
1.39           1.209889e-05 1.110960e-03 -1.522214e-07 8.789632e-06 7.084666e-04 2.244628e-15 3.309256e-06 4.024935e-04 -1.522214e-07
1.4            1.214221e-05 1.110886e-03 -1.522926e-07 8.818939e-06 7.084131e-04 2.245357e-15 3.323274e-06 4.024730e-04 -1.522926e-07
1.41           1.218312e-05 1.110815e-03 -1.523665e-07 8.846072e-06 7.083626e-04 2.246097e-15 3.337052e-06 4.024525e-04 -1.523665e-07
1.42           1.221823e-05 1.110747e-03 -1.524431e-07 8.867790e-06 7.083146e-04 2.246804e-15 3.350444e-06 4.024320e-04 -1.524431e-07
1.43           1.225205e-05 1.110677e-03 -1.525224e-07 8.888575e-06 7.082653e-04 2.247487e-15 3.363479e-06 4.024113e-04 -1.525224e-07
1.44           1.228367e-05 1.110608e-03 -1.526045e-07 8.907512e-06 7.082169e-04 2.248183e-15 3.376157e-06 4.023907e-04 -1.526045e-07
1.45           1.231345e-05 1.110540e-03 -1.526893e-07 8.924959e-06 7.081703e-04 2.248852e-15 3.388487e-06 4.023701e-04 -1.526893e-07
1.46           1.234085e-05 1.110474e-03 -1.527770e-07 8.940382e-06 7.081242e-04 2.249486e-15 3.400464e-06 4.023495e-04 -1.527770e-07
1.47           1.236597e-05 1.110408e-03 -1.528676e-07 8.953902e-06 7.080787e-04 2.250142e-15 3.412071e-06 4.023290e-04 -1.528676e-07
1.48           1.238894e-05 1.110342e-03 -1.529610e-07 8.965644e-06 7.080337e-04 2.250759e-15 3.423301e-06 4.023085e-04 -1.529610e-07
1.49           1.240968e-05 1.110277e-03 -1.530574e-07 8.975533e-06 7.079894e-04 2.251353e-15 3.434149e-06 4.022881e-04 -1.530574e-07
1.5            1.242825e-05 1.110214e-03 -1.531566e-07 8.983646e-06 7.079458e-04 2.251948e-15 3.444603e-06 4.022678e-04 -1.531567e-07
1.51           1.244465e-05 1.110150e-03 -1.532587e-07 8.989991e-06 7.079028e-04 2.252537e-15 3.454657e-06 4.022476e-04 -1.532587e-07
1.52           1.245875e-05 1.110088e-03 -1.533635e-07 8.994449e-06 7.078602e-04 2.253094e-15 3.464301e-06 4.022275e-04 -1.533635e-07
1.53           1.247065e-05 1.110026e-03 -1.534711e-07 8.997127e-06 7.078183e-04 2.253649e-15 3.473528e-06 4.022075e-04 -1.534711e-07
1.54           1.248038e-05 1.109965e-03 -1.535813e-07 8.998043e-06 7.077771e-04 2.254193e-15 3.482334e-06 4.021876e-04 -1.535813e-07
1.55           1.248786e-05 1.109904e-03 -1.536941e-07 8.997146e-06 7.077363e-04 2.254709e-15 3.490710e-06 4.021678e-04 -1.536941e-07
1.56           1.249310e-05 1.109844e-03 -1.538095e-07 8.994448e-06 7.076963e-04 2.255214e-15 3.498650e-06 4.021482e-04 -1.538095e-07
1.57           1.249639e-05 1.109787e-03 -1.539272e-07 8.990237e-06 7.076579e-04 2.255694e-15 3.506150e-06 4.021287e-04 -1.539272e-07
1.58           1.249709e-05 1.109728e-03 -1.540473e-07 8.983877e-06 7.076189e-04 2.256187e-15 3.513210e-06 4.021094e-04 -1.540473e-07
1.59           1.249587e-05 1.109671e-03 -1.541697e-07 8.976051e-06 7.075808e-04 2.256645e-15 3.519820e-06 4.020902e-04 -1.541697e-07
1.6            1.249260e-05 1.109615e-03 -1.542943e-07 8.966621e-06 7.075433e-04 2.257097e-15 3.525981e-06 4.020712e-04 -1.542943e-07
1.61           1.248723e-05 1.109559e-03 -1.544210e-07 8.955539e-06 7.075064e-04 2.257519e-15 3.531690e-06 4.020523e-04 -1.544210e-07
1.62           1.247984e-05 1.109504e-03 -1.545496e-07 8.942898e-06 7.074701e-04 2.257943e-15 3.536946e-06 4.020336e-04 -1.545496e-07
1.63           1.247044e-05 1.109449e-03 -1.546801e-07 8.928691e-06 7.074344e-04 2.258348e-15 3.541747e-06 4.020150e-04 -1.546801e-07
1.64           1.245907e-05 1.109396e-03 -1.548124e-07 8.912979e-06 7.073993e-04 2.258727e-15 3.546094e-06 4.019967e-04 -1.548124e-07
1.65           1.244575e-05 1.109343e-03 -1.549463e-07 8.895765e-06 7.073647e-04 2.259133e-15 3.549987e-06 4.019785e-04 -1.549463e-07
1.66           1.243054e-05 1.109291e-03 -1.550818e-07 8.877112e-06 7.073307e-04 2.259475e-15 3.553428e-06 4.019605e-04 -1.550818e-07
1.67           1.241347e-05 1.109240e-03 -1.552187e-07 8.857049e-06 7.072973e-04 2.259847e-15 3.556418e-06 4.019427e-04 -1.552187e-07
1.68           1.239458e-05 1.109189e-03 -1.553569e-07 8.835620e-06 7.072644e-04 2.260183e-15 3.558959e-06 4.019250e-04 -1.553569e-07
1.69           1.237393e-05 1.109140e-03 -1.554963e-07 8.812879e-06 7.072320e-04 2.260511e-15 3.561054e-06 4.019075e-04 -1.554963e-07
1.7            1.235159e-05 1.109090e-03 -1.556367e-07 8.788884e-06 7.072002e-04 2.260816e-15 3.562707e-06 4.018902e-04 -1.556367e-07
1.71           1.232754e-05 1.109042e-03 -1.557782e-07 8.763622e-06 7.071690e-04 2.261122e-15 3.563922e-06 4.018731e-04 -1.557782e-07
1.72           1.230186e-05 1.108994e-03 -1.559205e-07 8.737159e-06 7.071382e-04 2.261415e-15 3.564704e-06 4.018562e-04 -1.559205e-07
1.73           1.227471e-05 1.108947e-03 -1.560638e-07 8.709640e-06 7.071080e-04 2.261688e-15 3.565066e-06 4.018395e-04 -1.560638e-07
1.74           1.224589e-05 1.108901e-03 -1.562077e-07 8.680885e-06 7.070783e-04 2.261956e-15 3.565003e-06 4.018229e-04 -1.562077e-07
1.75           1.221556e-05 1.108856e-03 -1.563520e-07 8.651040e-06 7.070491e-04 2.262215e-15 3.564516e-06 4.018065e-04 -1.563520e-07
1.76           1.218375e-05 1.108811e-03 -1.564966e-07 8.620138e-06 7.070203e-04 2.262431e-15 3.563610e-06 4.017904e-04 -1.564966e-07
1.77           1.215057e-05 1.108766e-03 -1.566413e-07 8.588279e-06 7.069921e-04 2.262669e-15 3.562294e-06 4.017744e-04 -1.566413e-07
1.78           1.211611e-05 1.108723e-03 -1.567860e-07 8.555531e-06 7.069643e-04 2.262891e-15 3.560576e-06 4.017586e-04 -1.567860e-07
1.79           1.208040e-05 1.108680e-03 -1.569306e-07 8.521935e-06 7.069371e-04 2.263089e-15 3.558464e-06 4.017429e-04 -1.569306e-07
1.8            1.204357e-05 1.108638e-03 -1.570752e-07 8.487596e-06 7.069102e-04 2.263289e-15 3.555975e-06 4.017275e-04 -1.570752e-07
1.81           1.200549e-05 1.108596e-03 -1.572196e-07 8.452379e-06 7.068839e-04 2.263458e-15 3.553107e-06 4.017122e-04 -1.572196e-07
1.82           1.196625e-05 1.108555e-03 -1.573635e-07 8.416382e-06 7.068580e-04 2.263633e-15 3.549867e-06 4.016972e-04 -1.573635e-07
1.83           1.192596e-05 1.108515e-03 -1.575067e-07 8.379696e-06 7.068325e-04 2.263814e-15 3.546263e-06 4.016823e-04 -1.575067e-07
1.84           1.188465e-05 1.108475e-03 -1.576493e-07 8.342348e-06 7.068075e-04 2.263956e-15 3.542304e-06 4.016676e-04 -1.576493e-07
1.85           1.184282e-05 1.108435e-03 -1.577909e-07 8.304803e-06 7.067824e-04 2.264133e-15 3.538014e-06 4.016530e-04 -1.577909e-07
1.86           1.179987e-05 1.108397e-03 -1.579316e-07 8.266483e-06 7.067581e-04 2.264254e-15 3.533389e-06 4.016387e-04 -1.579316e-07
1.87           1.175594e-05 1.108359e-03 -1.580710e-07 8.227508e-06 7.067343e-04 2.264375e-15 3.528432e-06 4.016245e-04 -1.580710e-07
1.88           1.171120e-05 1.108321e-03 -1.582092e-07 8.188045e-06 7.067109e-04 2.264477e-15 3.523153e-06 4.016105e-04 -1.582092e-07
1.89           1.166572e-05 1.108285e-03 -1.583461e-07 8.148154e-06 7.066880e-04 2.264590e-15 3.517562e-06 4.015967e-04 -1.583461e-07
1.9            1.161955e-05 1.108248e-03 -1.584814e-07 8.107881e-06 7.066654e-04 2.264683e-15 3.511669e-06 4.015831e-04 -1.584814e-07
1.91           1.157276e-05 1.108213e-03 -1.586151e-07 8.067277e-06 7.066432e-04 2.264775e-15 3.505484e-06 4.015696e-04 -1.586151e-07
1.92           1.152541e-05 1.108178e-03 -1.587471e-07 8.026393e-06 7.066214e-04 2.264859e-15 3.499019e-06 4.015563e-04 -1.587471e-07
1.93           1.147757e-05 1.108143e-03 -1.588772e-07 7.985283e-06 7.066000e-04 2.264929e-15 3.492283e-06 4.015432e-04 -1.588772e-07
1.94           1.142926e-05 1.108109e-03 -1.590054e-07 7.943970e-06 7.065789e-04 2.264996e-15 3.485286e-06 4.015303e-04 -1.590054e-07
1.95           1.138055e-05 1.108076e-03 -1.591315e-07 7.902506e-06 7.065581e-04 2.265047e-15 3.478040e-06 4.015175e-04 -1.591315e-07
1.96           1.133149e-05 1.108043e-03 -1.592555e-07 7.860936e-06 7.065377e-04 2.265090e-15 3.470554e-06 4.015049e-04 -1.592555e-07
1.97           1.128215e-05 1.108010e-03 -1.593773e-07 7.819310e-06 7.065177e-04 2.265144e-15 3.462842e-06 4.014925e-04 -1.593773e-07
1.98           1.123257e-05 1.107978e-03 -1.594967e-07 7.777660e-06 7.064979e-04 2.265196e-15 3.454912e-06 4.014803e-04 -1.594967e-07
1.99           1.118281e-05 1.107947e-03 -1.596138e-07 7.736030e-06 7.064785e-04 2.265183e-15 3.446776e-06 4.014682e-04 -1.596138e-07
2              1.113291e-05 1.107916e-03 -1.597283e-07 7.694466e-06 7.064594e-04 2.265230e-15 3.438446e-06 4.014562e-04 -1.597283e-07
2.01           1.108294e-05 1.107885e-03 -1.598403e-07 7.653003e-06 7.064407e-04 2.265224e-15 3.429933e-06 4.014445e-04 -1.598403e-07
2.02           1.103292e-05 1.107855e-03 -1.599497e-07 7.611673e-06 7.064222e-04 2.265238e-15 3.421247e-06 4.014329e-04 -1.599497e-07
2.03           1.098293e-05 1.107825e-03 -1.600563e-07 7.570530e-06 7.064040e-04 2.265245e-15 3.412399e-06 4.014214e-04 -1.600563e-07
2.04           1.093302e-05 1.107796e-03 -1.601602e-07 7.529620e-06 7.063862e-04 2.265234e-15 3.403403e-06 4.014101e-04 -1.601602e-07
2.05           1.088321e-05 1.107768e-03 -1.602612e-07 7.488948e-06 7.063686e-04 2.265232e-15 3.394266e-06 4.013990e-04 -1.602612e-07
2.06           1.083359e-05 1.107739e-03 -1.603594e-07 7.448586e-06 7.063514e-04 2.265219e-15 3.385002e-06 4.013880e-04 -1.603594e-07
2.07           1.078416e-05 1.107711e-03 -1.604545e-07 7.408540e-06 7.063343e-04 2.265195e-15 3.375622e-06 4.013771e-04 -1.604545e-07
2.08           1.073505e-05 1.107684e-03 -1.605467e-07 7.368909e-06 7.063176e-04 2.265178e-15 3.366138e-06 4.013664e-04 -1.605467e-07
2.09           1.068623e-05 1.107657e-03 -1.606358e-07 7.329667e-06 7.063012e-04 2.265164e-15 3.356561e-06 4.013559e-04 -1.606358e-07
2.1            1.063784e-05 1.107631e-03 -1.607217e-07 7.290939e-06 7.062850e-04 2.265113e-15 3.346905e-06 4.013455e-04 -1.607218e-07
2.11           1.058990e-05 1.107604e-03 -1.608046e-07 7.252719e-06 7.062692e-04 2.265088e-15 3.337183e-06 4.013352e-04 -1.608046e-07
2.12           1.054182e-05 1.107578e-03 -1.608843e-07 7.214438e-06 7.062528e-04 2.265033e-15 3.327380e-06 4.013251e-04 -1.608843e-07
2.13           1.049452e-05 1.107552e-03 -1.609607e-07 7.176999e-06 7.062372e-04 2.264997e-15 3.317525e-06 4.013151e-04 -1.609607e-07
2.14           1.044747e-05 1.107527e-03 -1.610339e-07 7.139857e-06 7.062219e-04 2.264937e-15 3.307617e-06 4.013052e-04 -1.610339e-07
2.15           1.040090e-05 1.107502e-03 -1.611037e-07 7.103231e-06 7.062068e-04 2.264893e-15 3.297668e-06 4.012955e-04 -1.611037e-07
2.16           1.035539e-05 1.107478e-03 -1.611703e-07 7.067679e-06 7.061921e-04 2.264841e-15 3.287708e-06 4.012859e-04 -1.611703e-07
2.17           1.031032e-05 1.107454e-03 -1.612335e-07 7.032587e-06 7.061775e-04 2.264786e-15 3.277736e-06 4.012764e-04 -1.612335e-07
2.18           1.026594e-05 1.107430e-03 -1.612934e-07 6.998179e-06 7.061633e-04 2.264718e-15 3.267766e-06 4.012671e-04 -1.612934e-07
2.19           1.022231e-05 1.107407e-03 -1.613500e-07 6.964505e-06 7.061491e-04 2.264665e-15 3.257804e-06 4.012579e-04 -1.613500e-07
2.2            1.017933e-05 1.107384e-03 -1.614032e-07 6.931467e-06 7.061354e-04 2.264608e-15 3.247859e-06 4.012488e-04 -1.614032e-07
2.21           1.013763e-05 1.107360e-03 -1.614531e-07 6.899664e-06 7.061201e-04 2.264540e-15 3.237963e-06 4.012398e-04 -1.614531e-07
2.22           1.009447e-05 1.107340e-03 -1.614995e-07 6.866408e-06 7.061086e-04 2.264463e-15 3.228065e-06 4.012310e-04 -1.614995e-07